ITEM: TIMESTEP
86
ITEM: NUMBER OF ATOMS
4320
ITEM: BOX BOUNDS pp pp pp
0.0000000000000000e+00 1.9309999999999999e+01
0.0000000000000000e+00 1.9309999999999999e+01
0.0000000000000000e+00 9.6549999999999994e+00
ITEM: ATOMS id type c_displacement[1] c_displacement[2] c_displacement[3] c_displacement[4] 
4012 2 0.020314 -0.0957502 -0.0679116 0.119133 
2361 1 -0.0577784 -0.0501472 -0.140212 0.159727 
79 1 0.0543823 -0.0531301 -0.055945 0.0943933 
781 1 0.0493055 0.0484266 0.145236 0.160841 
461 1 0.031529 0.0668764 0.0776198 0.107198 
3704 2 0.0352504 -0.0957524 0.0492006 0.113278 
629 1 -0.0135226 0.100474 0.0493115 0.112737 
1571 1 0.034986 -0.0604078 -0.0545493 0.0885931 
58 1 0.048856 0.174712 0.016084 0.182126 
2372 1 -0.0733454 -0.0333921 -0.0397487 0.0898584 
372 1 0.0152351 -0.0880944 -0.0242969 0.0926448 
3504 2 -0.0586797 -0.0663212 0.0496965 0.101546 
4130 2 0.0675003 -0.0122275 -0.102409 0.123262 
1262 1 0.0346053 0.00957349 -0.0549643 0.0656525 
907 1 -0.112068 -0.0402639 -0.149085 0.190806 
3659 2 0.0193201 0.0805399 -0.0567918 0.100425 
1298 1 0.0500102 0.0526961 -0.0996246 0.1233 
1716 1 0.0516143 0.0388744 -0.0535201 0.0839026 
1182 1 0.0231892 0.0485597 -0.0515217 0.0745001 
683 1 0.0298437 -0.0628752 0.0114583 0.0705354 
1958 1 -0.0647198 -0.00936502 -0.0203608 0.0684902 
1554 1 0.0374994 -0.0860955 -0.0703903 0.11736 
1037 1 -0.00410756 -0.0961107 0.00126576 0.0962068 
749 1 -0.0140252 -0.154056 -0.0291019 0.157407 
3628 2 0.0309492 0.0202895 0.024863 0.0445835 
946 1 -0.124343 -0.0595936 0.0209886 0.139475 
2232 1 -0.0956479 -0.184967 -0.129618 0.245279 
7 1 0.0220869 -0.0716145 0.0608887 0.0965604 
501 1 0.0083835 -0.0313281 0.00657618 0.0330905 
179 1 -0.0486598 -0.00177986 0.070359 0.0855648 
714 1 -0.11738 0.0379267 0.0301612 0.126989 
4166 2 0.000464313 -0.0635378 0.129134 0.143919 
276 1 -0.0220185 -0.0849623 0.0629346 0.108001 
767 1 0.029216 0.000261746 0.0455534 0.054118 
3890 2 -0.147406 -0.0485612 -0.0484311 0.16258 
6 1 0.0197987 0.176661 0.0502424 0.184731 
2086 1 0.0893485 0.0258639 0.0119138 0.0937765 
224 1 0.132467 -0.081185 0.0124133 0.155861 
3660 2 0.0167624 -0.0387252 0.104748 0.112929 
596 1 -0.0650264 -0.0288826 -0.0347762 0.0791961 
1214 1 0.0950271 -0.0394655 -0.0703258 0.124633 
3686 2 -0.0461994 -0.00334395 0.0487056 0.0672146 
427 1 -0.15834 0.028044 0.0556052 0.170147 
350 1 0.0442062 0.0540362 -0.079193 0.105573 
85 1 -0.0598369 0.0515285 0.0968627 0.124972 
598 1 0.0484532 -0.15225 0.0491462 0.167162 
3554 2 0.101357 -0.00763423 -0.0353132 0.107604 
29 1 -0.233461 0.0890021 -0.0410873 0.253207 
464 1 0.0390035 -0.032376 -0.113545 0.124346 
3619 2 -0.08108 -0.00668767 0.149551 0.170247 
12 1 -0.069568 0.0251176 -0.0797524 0.108771 
364 1 -0.149791 -0.0289355 -0.0544174 0.161974 
1849 1 -0.0998611 -0.0637265 -0.114664 0.164867 
3663 2 -0.217171 0.0621652 -0.0611184 0.234016 
3517 2 0.00504249 0.0169826 0.153587 0.154605 
25 1 0.215494 0.0508207 -0.069376 0.23202 
4163 2 -0.0218058 -0.0467575 -0.000531842 0.051595 
399 1 0.0424556 0.0628155 -0.0375691 0.084615 
4265 2 -0.0451562 0.0528831 0.156021 0.170817 
527 1 -0.0242513 0.0903271 -0.0197883 0.0955965 
200 1 0.0386952 0.0523535 0.119619 0.136187 
1951 1 0.0984597 0.0816707 0.00174871 0.127935 
644 1 0.0328129 -0.0375326 0.0199058 0.0536808 
193 1 0.000842571 0.0294054 0.0513694 0.0591963 
550 1 0.0739897 -0.0268401 0.0211386 0.0814967 
69 1 0.044863 -0.0615079 0.00262889 0.0761763 
842 1 0.0502351 0.0202494 -0.0261342 0.0601382 
578 1 0.0480359 -0.0734798 -0.0191258 0.0898472 
172 1 -0.0199266 -0.0189615 0.0705704 0.0757416 
381 1 -0.0291431 -0.0253352 0.0498334 0.0630441 
3524 2 0.014558 0.0290652 0.0757587 0.0824385 
688 1 -0.0203526 0.142423 0.0416498 0.149778 
3651 2 -0.0266537 0.0224756 0.0922788 0.0986456 
2367 1 0.0525941 0.0548153 -0.0854783 0.114356 
1244 1 -0.133887 0.00101248 -0.00017053 0.13389 
796 1 0.0285383 0.134793 -0.0541546 0.148041 
691 1 0.00807257 0.0172517 -0.0995139 0.10132 
421 1 0.0589462 0.0668091 -0.00516933 0.0892459 
597 1 0.0487755 0.0162917 0.0553514 0.0755529 
3617 2 0.136796 -0.0146848 -0.0391589 0.143047 
120 1 0.0469285 0.236903 0.115971 0.267908 
769 1 -0.0779487 -0.0709818 0.0250339 0.108356 
2142 1 0.0389643 0.0439184 -0.0158837 0.0608221 
3611 2 0.0803972 -0.010924 0.17809 0.195702 
1915 1 0.0112786 0.119339 0.0804416 0.14436 
2140 1 0.082225 -0.0470223 0.0498578 0.107041 
3828 2 0.0471682 0.101608 0.0877774 0.142316 
3204 1 -0.0403766 0.0364381 0.0835795 0.0997173 
175 1 0.103528 -0.0685484 -0.0581813 0.13712 
2011 1 0.217217 0.117339 0.0703362 0.256708 
75 1 -0.078542 0.119339 -0.0525189 0.152213 
547 1 -0.00574986 -0.00460038 -0.154494 0.15467 
4316 2 -0.0950093 0.0900097 -0.0843278 0.155691 
559 1 0.0195876 0.0569562 -0.0552398 0.0817258 
717 1 0.00942873 0.0808878 -0.116197 0.141893 
242 1 -0.0103302 -0.0315005 0.157481 0.160932 
3510 2 -0.144004 -0.00208368 0.200382 0.246768 
130 1 0.0960586 0.0144501 0.0500542 0.109277 
143 1 0.0237807 0.0827513 -0.0180435 0.0879709 
202 1 -0.132977 -0.121362 -0.0132536 0.18052 
182 1 -0.131633 0.0696654 0.0810205 0.169543 
84 1 0.0242893 0.0222784 -0.0140702 0.0358367 
3633 2 -0.0902749 -0.0159618 -0.0550021 0.106909 
35 1 -0.162618 0.0251886 0.14498 0.219313 
3612 2 -0.00339422 0.0267602 0.0352586 0.0443936 
40 1 0.0753399 0.0961716 0.0659728 0.138843 
4005 2 0.0991536 -0.100893 0.0969331 0.171484 
718 1 -0.103555 0.00470875 -0.0362367 0.109813 
134 1 0.0406167 0.0399087 0.0777375 0.0963615 
511 1 -0.13721 -0.0384913 0.0184898 0.143701 
757 1 -0.034087 0.189311 0.00684188 0.192477 
3555 2 -0.0441013 0.105435 0.085523 0.142743 
3481 2 0.00952594 -0.0495159 -0.0609528 0.0791063 
135 1 -0.0565572 -0.031577 -0.0599094 0.0882324 
369 1 0.0819643 -0.0366293 -0.0108264 0.0904272 
2148 1 -0.0336429 -0.0766913 0.0637896 0.105274 
3462 2 0.0238828 -0.084935 -0.155652 0.178919 
1914 1 -0.0305534 -0.0487208 -0.086791 0.104115 
3661 2 0.0838632 -0.128201 -0.0266733 0.155499 
1871 1 0.0065733 0.0434547 -0.0168816 0.0470798 
320 1 -0.104473 -0.107748 -0.0600048 0.161632 
582 1 -0.0885932 -0.0960227 -0.00385248 0.130706 
766 1 -0.00266577 0.0353027 -0.0696297 0.0781133 
3552 2 0.0794844 0.025785 -0.0374632 0.0915758 
2290 1 0.0247826 0.0917621 0.0176932 0.0966825 
1794 1 -0.0781253 0.148629 0.0349412 0.171508 
753 1 -0.0177616 -0.0235923 0.0375242 0.0477507 
396 1 0.0617083 -0.0152512 0.169708 0.181222 
496 1 0.0247911 -0.0725507 -0.0779248 0.109318 
480 1 -0.0335577 -0.0822209 0.114696 0.145057 
253 1 0.0930756 0.000147413 -0.0799783 0.122718 
4033 2 0.0244089 -0.0277328 -0.053791 0.0652563 
347 1 -0.0398912 -0.040764 -0.109287 0.123275 
586 1 -0.0804113 0.0217979 -0.0754035 0.112369 
3671 2 -0.0665135 0.0129264 -0.0415864 0.079502 
37 1 0.110619 -0.178811 -0.0800911 0.224999 
782 1 0.0513735 -0.115049 -0.0597398 0.139443 
481 1 0.112824 -0.0750597 -0.046772 0.143355 
392 1 -0.0267517 -0.0181573 -0.0735264 0.0803211 
333 1 0.00968765 -0.0455143 -0.0362248 0.0589715 
342 1 -0.000816359 -0.0619181 -0.0876955 0.107355 
1179 1 0.0430783 -0.097779 -0.088281 0.1386 
517 1 0.0568685 -0.0848586 -0.031762 0.106976 
1824 1 0.0355486 -0.0232832 0.00306631 0.0426053 
34 1 0.1683 -0.04517 0.0562188 0.1831 
398 1 -0.00304536 -0.022997 -0.0560912 0.060699 
170 1 -0.0432323 -0.0435683 -0.0186158 0.0641387 
235 1 0.0266094 -0.0503526 0.0496914 0.0755823 
3852 2 -0.0703662 -0.0117577 -0.0142115 0.0727435 
816 1 0.0453269 -0.0661516 -0.138006 0.159612 
3931 2 -0.188506 -0.0857818 0.0586999 0.215264 
274 1 -0.0112333 -0.0768107 -0.0736347 0.106996 
30 1 -0.00227548 -0.0766147 -0.0196535 0.079128 
2066 1 0.0941619 -0.0269665 0.155642 0.183897 
1082 1 -0.0379148 -0.136855 0.17392 0.224533 
1372 1 0.0132098 -0.0378742 0.0939047 0.102113 
1265 1 0.0245621 -0.0117114 -0.0142483 0.0307159 
601 1 -0.0381659 0.0548714 0.0193222 0.0695763 
540 1 -0.098311 -0.147656 -0.0186965 0.178373 
589 1 -0.021011 0.0775185 0.16976 0.187801 
958 1 0.111731 -0.013807 0.0980284 0.149279 
504 1 -0.0621405 0.0837416 -0.0248813 0.107206 
1349 1 -0.178429 -0.0306135 0.00307312 0.181062 
9 1 0.0214077 -0.120519 -0.0336101 0.126936 
149 1 -0.036492 0.00532583 0.0102136 0.0382668 
163 1 -0.0212291 -0.266258 0.0943268 0.283269 
4247 2 0.0659002 -0.120601 -0.12644 0.186747 
1584 1 0.172541 0.0229157 -0.0616401 0.184649 
3570 2 -0.0337786 -0.121527 -0.0869233 0.153185 
237 1 -0.0164684 0.0607346 0.111582 0.128103 
490 1 0.0649745 -0.139667 0.0607038 0.16557 
50 1 0.0598305 0.024876 0.0461114 0.0795284 
152 1 0.103935 -0.0142491 -0.230632 0.25337 
3652 2 -0.0811876 -0.0706601 -0.0287866 0.111413 
3823 2 0.080731 0.0575127 -0.177298 0.203125 
902 1 -0.0321762 0.0397907 0.0454601 0.0684487 
3574 2 0.0135232 0.0210689 -0.00549846 0.0256322 
770 1 -0.0124175 -0.0106687 -0.0906333 0.0921 
154 1 -0.0597225 -0.0713237 -0.0162137 0.0944285 
116 1 0.085036 -0.0398181 0.137194 0.166249 
710 1 -0.0723527 -0.152721 -0.0620935 0.180039 
1956 1 -0.079212 -0.0347063 0.029699 0.0914391 
1810 1 -0.116503 0.012793 -0.00228164 0.117226 
2072 1 -0.036772 -0.0184797 -0.0716221 0.0826039 
1649 1 -0.0560831 -0.0210651 -0.119268 0.133469 
186 1 -0.117601 0.0674536 0.046896 0.143454 
1063 1 -0.230835 0.194602 -0.149375 0.33685 
432 1 -0.146217 0.0600846 -0.0801363 0.177232 
2495 1 -0.0260111 -0.138512 -0.00391177 0.140988 
3896 2 -0.0537135 0.00343936 -0.107706 0.120405 
460 1 0.0855929 -0.0133873 -0.0535986 0.101873 
913 1 0.0369484 0.0322778 -0.0154484 0.0514363 
1068 1 -0.106833 0.0485999 -0.0948711 0.150916 
265 1 -0.0855194 -0.0509431 -0.0904138 0.134475 
1287 1 0.0165039 0.0346391 0.0248317 0.0457041 
3799 2 0.153417 -0.10502 -0.117648 0.220017 
554 1 0.159066 -0.0606424 0.0205408 0.171468 
1414 1 -0.00569727 0.0582482 -0.051698 0.0780897 
213 1 0.00139932 0.022845 0.0611368 0.0652807 
341 1 -0.107544 -0.0171102 0.0308308 0.113177 
3682 2 0.0268462 0.104799 -0.0465214 0.117762 
754 1 -0.0458494 0.0109914 0.0416139 0.0628864 
112 1 -0.0184244 0.0601104 -0.00125888 0.0628833 
1041 1 -0.00579098 0.00843158 -0.0435486 0.0447338 
119 1 0.0541311 0.0854199 -0.0589749 0.117067 
3998 2 0.0637536 -0.0579934 0.176254 0.196197 
995 1 -0.0482633 0.00447539 -0.0207243 0.0527151 
4128 2 0.062642 -0.0315465 0.246463 0.256248 
8 1 0.0164165 0.0654533 0.0037472 0.0675846 
94 1 0.0444739 0.076892 -0.0244294 0.0921255 
48 1 0.0921095 -0.0392197 0.122469 0.15818 
437 1 0.0809061 -0.0362932 -0.0193669 0.0907638 
3866 2 0.0584186 0.00954882 -0.0472872 0.0757627 
2206 1 0.0286068 0.0263196 -0.0304353 0.0493698 
3490 2 -0.021135 0.0163091 -0.124751 0.127575 
3072 1 -0.0120967 -0.120189 0.0560309 0.133159 
3002 1 0.133358 0.046064 -0.0277433 0.143791 
92 1 0.0314029 0.0830218 0.0517228 0.102733 
335 1 0.0456762 0.0352865 -0.0369814 0.0685498 
2192 1 0.0317289 0.0402642 0.180838 0.187963 
1186 1 -0.00278204 -0.0339929 -0.0216886 0.0404184 
1114 1 0.0724707 -0.0827782 0.0261127 0.113076 
1821 1 -0.124036 -0.0733994 -0.0355735 0.148452 
1922 1 0.0311127 -0.0827462 0.0519652 0.102544 
451 1 -0.106431 -0.036164 -0.0150118 0.113405 
3960 2 -0.0249662 -0.0377407 0.0711266 0.084301 
100 1 -0.0720901 -0.0680454 -0.0232765 0.101828 
1180 1 0.0519527 -0.0417069 -0.0993777 0.119643 
165 1 0.0682 0.00617985 -0.0521033 0.0860475 
388 1 -0.0492276 -0.00143415 -0.116055 0.126072 
3742 2 -0.0212997 -0.0576215 0.0232072 0.0656695 
323 1 -0.0942171 0.0784625 0.0615321 0.137184 
288 1 -0.124479 0.0282634 -0.045451 0.135498 
3942 2 -0.105289 0.129231 0.108444 0.198863 
66 1 0.039923 0.0511373 0.104855 0.123302 
340 1 0.113763 0.079418 -0.0420885 0.144985 
138 1 -0.0263049 0.0132765 0.0755749 0.0811158 
879 1 -0.072037 0.00319741 -0.0468503 0.0859913 
3808 2 0.0758399 0.1913 -0.0570673 0.213551 
834 1 0.115764 0.0391913 0.000627882 0.12222 
18 1 -0.0512178 -0.0688071 -0.114701 0.143227 
3679 2 0.136572 -0.0759177 -0.103032 0.187166 
52 1 -0.000366174 -0.184034 0.0309097 0.186612 
407 1 0.0084615 0.118005 -0.0867459 0.146703 
360 1 0.0587651 0.00304389 -0.0474825 0.0756121 
2885 1 -0.0691586 -0.00949434 0.0152159 0.0714464 
3526 2 -0.0734665 -0.238986 -0.0130628 0.250364 
310 1 -0.09989 -0.0388047 -0.0662468 0.125986 
326 1 0.0769337 -0.0421252 0.0807689 0.119235 
227 1 -0.0597587 -0.0803635 -0.088236 0.133473 
2068 1 -0.0568609 0.0190041 -0.182725 0.192309 
456 1 0.115046 -0.0120011 0.0665149 0.133431 
279 1 0.0664228 0.0601799 0.167808 0.190245 
305 1 -0.0113647 0.00695425 0.0458591 0.0477553 
49 1 0.0153281 0.00593557 -0.00424114 0.0169755 
3512 2 0.0520597 -0.190596 0.0131552 0.198015 
11 1 -0.0682944 -0.158303 -0.0253165 0.174255 
189 1 -0.153864 0.0749176 -0.0352502 0.174727 
2271 1 -0.062466 -0.107729 -0.0908651 0.154156 
319 1 -0.174769 -0.0628031 0.0295515 0.188047 
3566 2 0.0747408 0.00922813 -0.0513084 0.0911258 
71 1 0.0174365 0.00144407 0.0379487 0.0417878 
1560 1 -0.0753394 0.0578986 0.0636388 0.11436 
190 1 -0.0803002 -0.0106096 0.137024 0.159174 
123 1 0.0653818 -0.0122908 0.0932572 0.114555 
27 1 -0.00574587 -0.0447955 0.0426841 0.0621416 
162 1 -0.00103877 0.0577523 -0.0329337 0.0664909 
255 1 -0.147095 -0.0356512 0.0155323 0.152148 
304 1 -0.0219953 0.007802 -0.100282 0.102962 
321 1 0.0219281 -0.0277553 0.13394 0.138532 
682 1 -0.0975115 0.00139511 -0.00845569 0.0978874 
3469 2 0.0144 -0.00400404 -0.0872625 0.0885333 
3539 2 0.000468986 -0.0104522 0.0981837 0.0987396 
128 1 0.0018248 -0.0819763 -0.100679 0.129845 
3562 2 0.111933 0.0081797 0.116993 0.162121 
560 1 -0.199568 -0.0704403 -0.0876032 0.229049 
212 1 0.0404434 0.0299021 -0.0694401 0.0857423 
355 1 0.0117526 0.0404263 0.0683391 0.080266 
156 1 0.0165662 0.0517238 0.056565 0.0784181 
3620 2 0.10167 -0.0497536 0.00507559 0.113305 
1823 1 0.179398 -0.191846 -0.0820549 0.275175 
1805 1 -0.146556 -0.000388322 0.120749 0.189893 
2599 1 -0.0815866 0.0634125 0.105435 0.147628 
327 1 0.136125 0.0748139 0.0660633 0.168794 
137 1 0.073508 0.0376965 -0.033 0.0889576 
2334 1 0.0181414 -0.00123761 0.0141323 0.0230296 
3698 2 -0.00159343 -0.0285025 -0.0561077 0.0629524 
555 1 -0.0251303 -0.025336 -0.0175191 0.0397538 
4178 2 -0.00124711 -0.0161141 -0.00749287 0.0178146 
290 1 0.0298977 -0.0267547 -0.080392 0.0898475 
284 1 0.0136475 0.0624759 0.0325648 0.0717632 
3543 2 -0.0636216 -0.111839 -0.0195022 0.130138 
366 1 0.0224018 0.000978869 0.132778 0.134658 
55 1 0.0406677 0.0437151 0.0207764 0.0632181 
273 1 -0.018718 0.0323648 -0.117914 0.1237 
3468 2 0.0897702 -0.00982172 0.168406 0.191091 
316 1 0.149425 0.0525319 0.155971 0.222293 
81 1 -0.0430837 -0.042692 0.0048418 0.0608462 
322 1 0.0512906 -0.027078 0.055593 0.08034 
239 1 0.0635981 -0.011334 -0.0407041 0.0763544 
734 1 -0.0210335 -0.084176 -0.0524296 0.101375 
384 1 -0.0147583 -0.0975276 -0.0996928 0.140243 
3476 2 0.0350061 0.0915656 0.0131219 0.0989034 
311 1 -0.0195548 -0.11501 -0.0123451 0.117312 
3471 2 0.0385478 0.0280897 0.0684896 0.0834613 
1938 1 0.0676297 -0.0276667 0.00994694 0.0737439 
139 1 0.143086 0.0626497 -0.0702172 0.171257 
727 1 0.0939628 -0.155156 -0.0679216 0.19369 
1885 1 0.0236523 0.0716867 0.0246632 0.0794146 
2184 1 0.218735 0.0495501 -0.0354499 0.227062 
2494 1 -0.153222 0.0356616 -0.0917272 0.182106 
2091 1 0.016704 0.012197 -0.0488326 0.0530321 
281 1 0.0253458 0.106212 0.155733 0.1902 
863 1 -0.0432365 0.0856241 -0.0342251 0.101844 
176 1 -0.0659058 0.035813 -0.10827 0.131714 
3710 2 0.0170257 0.0508485 -0.0662848 0.0852591 
3572 2 -0.0608045 -0.0974706 -0.101114 0.153041 
4197 2 0.0208567 0.041394 -0.136459 0.144117 
343 1 -0.0511538 -0.0201314 -0.0901472 0.105586 
282 1 -0.011669 -0.00108952 -0.0813624 0.0822022 
1038 1 0.0306879 0.0345913 0.0890702 0.100358 
408 1 0.155846 -0.0503149 0.0349375 0.167452 
412 1 0.0997798 -0.000267632 0.0483692 0.110886 
820 1 0.0975512 0.0652088 0.14106 0.183484 
585 1 -0.0480939 -0.0363984 -0.0935275 0.111289 
3609 2 0.0514682 -0.135502 0.055241 0.155118 
719 1 0.00225846 -0.0271114 -0.00675883 0.0280323 
608 1 0.0864904 0.123088 0.118379 0.191428 
106 1 0.000838208 0.0485742 0.00863076 0.0493421 
1047 1 -0.0878172 -0.0658099 -0.0460658 0.119016 
3573 2 0.0754056 0.0609675 -0.0640461 0.116211 
751 1 -0.00598064 -0.0568415 -0.0681945 0.0889788 
259 1 0.0443139 0.00384281 -0.0370144 0.0578667 
245 1 -0.0317807 0.00554381 0.0177054 0.0367999 
613 1 -0.0278132 -0.126263 0.0668376 0.145544 
4296 2 -0.0222853 0.0515237 0.00119906 0.0561495 
272 1 -0.104845 -0.143932 -0.0508214 0.18518 
4239 2 -0.192384 -0.0759994 -0.0859637 0.224003 
88 1 0.0494445 0.104258 0.0889834 0.145714 
4 1 0.0688749 -0.0118365 -0.0387101 0.0798895 
361 1 0.148073 0.0625708 -0.139361 0.212749 
358 1 -0.0488393 0.0622525 0.105094 0.13155 
194 1 0.0241993 0.0164088 -0.0923861 0.0969023 
2373 1 0.03114 -0.0077354 -0.0566446 0.0651011 
1982 1 0.0662663 0.0156617 0.06454 0.0938186 
3953 2 0.0357603 0.0761687 0.0839301 0.118848 
414 1 0.0246952 0.0516601 -0.170551 0.179906 
3186 1 0.0638954 -0.0173759 -0.0363613 0.0755426 
177 1 0.079734 -0.0123395 -0.0103236 0.081341 
1962 1 -0.0225802 0.13648 0.158091 0.21007 
706 1 0.00554384 0.0695685 0.00416352 0.0699132 
1544 1 0.0276562 -0.167578 0.0440316 0.17546 
4160 2 -0.00594446 0.0840222 -0.00211218 0.0842587 
19 1 -0.060368 0.105042 -0.0634746 0.136774 
3624 2 -0.0627914 0.00976925 -0.0738583 0.0974333 
115 1 0.0364476 0.0166811 -0.146843 0.152216 
1102 1 -0.057245 -0.0228306 0.0865276 0.106232 
2048 1 0.130478 0.0303111 0.0338085 0.138153 
649 1 0.0236923 0.0742617 -0.00871795 0.0784355 
113 1 -0.0177424 -0.0977398 0.0296247 0.10366 
1150 1 0.0137189 -0.0110081 0.01156 0.021048 
620 1 0.0348543 -0.104003 0.0314224 0.1141 
739 1 0.0389387 -0.0191637 -0.154751 0.160721 
2412 1 -0.0412073 0.00322342 0.00996244 0.0425168 
3746 2 0.0983019 0.011101 -0.201609 0.224572 
1225 1 -0.0170188 -0.0157171 0.170953 0.172515 
241 1 0.128081 -0.0549809 -0.00599953 0.139512 
83 1 0.0367941 -0.0486653 -0.00112269 0.0610195 
1006 1 0.0659102 0.0181024 -0.0222621 0.071885 
4046 2 -0.0838945 -0.0704448 -0.0359836 0.115306 
96 1 -0.0564539 -0.165949 0.078013 0.191865 
411 1 0.148166 0.0551736 0.0353023 0.161999 
2454 1 -0.0250195 -0.0211142 0.062067 0.0701719 
404 1 0.00439267 0.0694082 0.055052 0.0886991 
226 1 0.0449943 -0.0245687 0.0366308 0.0630073 
534 1 0.0546749 -0.0508829 0.128473 0.148606 
3538 2 -0.093559 0.0652923 -0.0477205 0.123667 
761 1 0.0400558 -0.0416074 0.0599618 0.083253 
246 1 0.0415368 0.0157433 -0.0342234 0.0560749 
2229 1 -0.110101 -0.112885 -0.0607115 0.168971 
146 1 0.0280766 -0.158017 -0.0752371 0.177252 
3608 2 -0.0531915 -0.0160404 0.0415414 0.0693708 
503 1 0.0745559 -0.0355462 -0.0268862 0.0868619 
505 1 0.130485 -0.0912869 0.0232085 0.16093 
1430 1 -0.0257046 -0.079055 -0.0885969 0.12149 
97 1 -0.162027 0.0688053 -0.075393 0.191497 
1723 1 0.00662526 -0.0391691 -0.0892492 0.097691 
3561 2 0.0230022 0.201417 -0.0588479 0.211095 
20 1 -0.0660368 0.0033011 0.0200831 0.069102 
263 1 -0.0540576 0.161504 -0.0130511 0.17081 
817 1 0.0946915 -0.0910815 0.0280538 0.134348 
1034 1 -0.0442836 0.0553415 0.00624702 0.0711529 
353 1 -0.00371335 -0.10422 0.172464 0.201543 
1260 1 0.0364028 0.111874 -0.0737765 0.138866 
998 1 0.0347898 0.128163 -0.0801747 0.155126 
1932 1 0.113513 -0.0994826 -0.0602979 0.162536 
36 1 0.0723435 -0.190897 -0.102329 0.228356 
38 1 0.0308741 0.0670343 -0.0495525 0.0888947 
3130 1 0.00500467 0.000275545 -0.0429644 0.0432558 
1973 1 0.10808 0.110409 0.125492 0.199047 
307 1 0.110264 -0.0282373 0.0522231 0.125231 
2714 1 0.0764888 0.0219067 -0.0139412 0.0807762 
28 1 0.0529969 0.0780407 -0.013794 0.0953378 
1937 1 0.0116689 0.085177 -0.0708609 0.111412 
562 1 -0.0646436 -0.111052 -0.0404893 0.134725 
3011 1 0.00722318 0.0236199 -0.0131992 0.0280052 
410 1 0.0647322 -0.151587 0.0496535 0.172146 
693 1 0.107907 0.0636689 0.185541 0.223882 
367 1 0.00475898 0.0115251 -0.00699332 0.0142962 
318 1 0.0490493 0.0355381 -0.164861 0.175635 
735 1 0.161465 0.0187965 0.0326253 0.165797 
600 1 0.0207818 -0.00281398 0.0443756 0.0490815 
3590 2 0.0734244 0.121717 0.082174 0.164192 
3636 2 0.0515647 -0.0639992 -0.00123107 0.0821969 
26 1 -0.141647 0.0159139 0.0961425 0.171932 
1199 1 0.0470953 0.108408 -0.0593028 0.132239 
614 1 0.0100383 0.0709144 -0.107124 0.128861 
459 1 -0.109074 -0.0404791 -0.0471197 0.125523 
3645 2 0.060345 0.120157 0.0543785 0.145039 
574 1 0.0758212 -0.0888766 0.138979 0.181557 
780 1 0.14481 0.0340899 0.0141332 0.149438 
161 1 -0.103894 -0.0486255 0.174002 0.208411 
309 1 0.101201 0.0725858 -0.0244347 0.126915 
365 1 0.0820418 -0.124176 0.0101249 0.149174 
191 1 -0.078646 0.0911147 -0.0205859 0.12211 
1766 1 -0.071502 -0.0557033 0.000640809 0.0906411 
2775 1 0.113861 -0.0738159 -0.0162022 0.136659 
1030 1 0.100064 -0.161263 0.0171171 0.190556 
1505 1 0.171704 0.172524 0.143484 0.28255 
3872 2 -0.0560746 0.0366461 -0.0308666 0.0737566 
580 1 -0.0200472 -0.0341531 0.0219181 0.0452629 
2054 1 -0.00906241 -0.100412 -0.0115009 0.101474 
2064 1 0.053107 0.0223097 0.0196909 0.0608754 
529 1 0.0148152 0.021138 -0.0585301 0.0639693 
402 1 -0.0373811 0.077806 -0.00110266 0.0863269 
124 1 -0.115284 -0.0583431 0.0304128 0.132737 
744 1 0.110244 -0.0290936 0.0689034 0.133221 
185 1 0.0560037 -0.0475042 0.0920166 0.117729 
315 1 0.0485953 -0.025739 -0.0110095 0.0560822 
655 1 0.00408224 -0.101435 0.183169 0.20942 
765 1 0.0348933 0.000886047 0.0417262 0.0544005 
140 1 -0.0253894 0.0370759 -0.171458 0.177249 
59 1 0.0494211 -0.0469041 0.0910535 0.113724 
54 1 0.0426015 0.0848479 0.039241 0.102732 
3506 2 -0.0312759 0.118227 -0.127709 0.17682 
666 1 0.0471051 -0.22994 0.0924609 0.25227 
43 1 0.0867104 0.0579526 0.124838 0.16267 
334 1 -0.10882 -0.0750385 0.0913685 0.160688 
267 1 0.118748 0.072127 -0.170253 0.219749 
99 1 0.0899202 0.11796 0.0856216 0.171264 
1189 1 -0.129264 0.00620817 -0.185687 0.226335 
201 1 -0.0420231 -0.0115323 -0.0425698 0.060919 
380 1 -0.00782166 0.0868484 -0.114524 0.143943 
1777 1 -0.0178765 -0.0155722 -0.0621126 0.0664834 
2597 1 0.18991 0.0179406 0.0725432 0.204084 
2484 1 0.164391 -0.0319922 0.0355491 0.171206 
308 1 0.0318814 -0.00962431 -0.0903677 0.0963087 
3918 2 -0.00876902 0.172866 0.100858 0.20033 
89 1 -0.110468 0.022303 0.0183641 0.114184 
300 1 -0.0423691 -0.0211998 0.0284095 0.055242 
3582 2 0.0786342 -0.0325839 -0.0725571 0.111846 
712 1 -0.00828736 0.120077 -0.0988521 0.155753 
3836 2 -0.0338161 0.100705 -0.0520312 0.118289 
268 1 -0.0343172 0.00668166 0.0778607 0.0853498 
788 1 -0.00930888 0.113413 -0.0451627 0.122429 
4091 2 -0.0377899 0.121292 -0.0154883 0.127984 
371 1 0.00140287 -0.00360502 0.115199 0.115264 
3505 2 0.119051 -0.000844225 -0.00799007 0.119322 
266 1 0.130011 -0.0364196 -0.103842 0.17033 
3571 2 -0.000736148 -0.0728548 0.0779365 0.106689 
637 1 -0.0410718 -0.0141437 -0.0807156 0.0916621 
157 1 -0.0726929 -0.0471157 0.0561781 0.103248 
257 1 -0.0353374 0.00807594 0.0465426 0.0589929 
571 1 0.00879484 0.0351507 0.0524559 0.0637537 
665 1 -0.142215 -0.0559075 0.125793 0.197926 
448 1 -0.192113 -0.145037 -0.000119412 0.240714 
827 1 0.0634929 0.0646972 0.0483871 0.102754 
3475 2 0.0892864 0.0119106 0.0457275 0.101019 
73 1 -0.0426629 0.0651486 -0.0245012 0.081638 
373 1 0.0998956 0.0113715 0.0687116 0.121777 
247 1 0.0330206 0.0067632 -0.0808368 0.0875825 
107 1 0.0606486 0.0741634 -0.0834861 0.127076 
675 1 -0.0817036 0.0256924 -0.120396 0.147752 
434 1 0.104093 0.0708645 -0.0615087 0.140144 
159 1 -0.048055 0.0902519 -0.0652835 0.121312 
32 1 0.0535579 0.134796 -0.0296238 0.14804 
3579 2 0.0918016 -0.00259964 -0.160712 0.185101 
394 1 -0.0554891 0.00705074 0.0763283 0.0946296 
260 1 0.0261622 0.0298725 0.0520855 0.065496 
3972 2 -0.0697193 0.0591007 0.0752367 0.118382 
1801 1 -0.0412687 0.048962 0.0108224 0.0649423 
2122 1 0.0350236 0.051314 0.196269 0.205867 
1966 1 0.044803 -0.0514598 -0.0771774 0.103013 
291 1 -0.0127674 -0.000512027 0.0682745 0.0694598 
2047 1 0.0877163 0.0455178 -0.0106328 0.0993935 
1899 1 0.0529335 0.0657483 -0.00983453 0.0849795 
622 1 0.00543853 0.18574 -0.0249972 0.187494 
1993 1 0.0106475 -0.0109041 0.0330585 0.0364024 
62 1 0.00362614 0.0171716 0.0594736 0.0620091 
2187 1 -0.0708459 0.0649214 -0.100806 0.139269 
4318 2 0.0958757 0.0283348 0.0483257 0.111042 
44 1 0.0325375 0.0598207 0.0931661 0.1154 
824 1 0.0316145 -0.0238791 0.0877264 0.096258 
1282 1 0.0419156 0.0191268 0.0862958 0.0978249 
3626 2 0.163682 0.100544 -0.0570023 0.200375 
819 1 0.0815604 0.124232 0.047205 0.15593 
773 1 -0.119791 -0.164291 0.0647461 0.213386 
270 1 -0.0651199 -0.0535488 -0.0622544 0.104803 
14 1 -0.144638 -0.0600993 0.0134274 0.157202 
3540 2 0.0586479 -0.111284 0.0373073 0.131208 
997 1 0.0524696 0.0281714 -0.109858 0.124962 
4275 2 -0.0385555 -0.0874625 -0.202074 0.22354 
164 1 0.00648304 0.020811 0.108988 0.111146 
234 1 0.0198214 -0.00689033 0.0490132 0.0533166 
1125 1 -0.0116948 -0.0632633 -0.074201 0.0982079 
3985 2 0.0293703 0.0330282 0.0457429 0.0636073 
328 1 0.0110871 0.000327913 -0.0274357 0.0295931 
3474 2 0.0628041 0.00590916 -0.073683 0.0969972 
543 1 -0.0342565 -0.0192488 0.0162316 0.0425146 
293 1 0.0881988 -0.0834713 0.129975 0.177876 
3458 2 0.128736 -0.0140824 0.109241 0.169426 
390 1 -0.0174896 0.00352154 -0.138733 0.139875 
3706 2 0.0712588 -0.232235 -0.188793 0.307659 
2169 1 0.092121 0.0638004 -0.0982701 0.149043 
1786 1 0.079375 -0.0172724 0.00928543 0.0817616 
1478 1 -0.0417223 0.0524582 0.0745421 0.100245 
87 1 0.0221067 0.00348494 -0.03891 0.0448869 
4090 2 -0.0965324 -0.0353378 0.0296765 0.106995 
142 1 0.0221537 0.0223306 0.00409692 0.0317211 
1650 1 -0.0818241 -0.112019 -0.0246548 0.140894 
153 1 0.0965266 -0.0523359 0.0153294 0.110867 
374 1 0.0137134 -0.0846972 -0.106588 0.136831 
602 1 0.0229688 -0.0306863 -0.140539 0.145672 
1277 1 -0.0493306 0.0225591 0.0243829 0.0594723 
76 1 0.0371562 0.0185609 0.190852 0.195319 
1370 1 0.0466656 -0.0338664 0.0629846 0.0853912 
221 1 -0.0389574 0.0488126 -0.0259644 0.0676351 
604 1 -0.110899 0.0178615 0.0655288 0.130045 
1161 1 -0.0039929 -0.0714766 0.0830383 0.109637 
1718 1 -0.0375487 0.035257 -0.0988346 0.111451 
178 1 -0.0974032 -0.288807 -0.0251545 0.305826 
295 1 -0.179066 -0.0986853 -0.0123335 0.204831 
1472 1 -0.0938968 -0.00999039 -0.0500168 0.106856 
4159 2 0.000271914 -0.0425446 -0.0171439 0.0458697 
3467 2 0.0690489 0.0186634 -0.0846815 0.110847 
3531 2 -0.101386 -0.0854377 0.141878 0.194186 
2720 1 -0.00318077 0.0510893 -0.0785125 0.0937254 
1851 1 -0.0194725 0.00151671 -0.00402908 0.0199427 
732 1 0.0380422 -0.0741499 0.0235926 0.0866142 
446 1 -0.310041 0.0981596 0.0988317 0.339895 
3878 2 0.0696701 0.110094 -0.0413842 0.136701 
3185 1 -0.159285 0.00419473 -0.013354 0.159899 
110 1 -0.116906 0.0123465 0.00177797 0.11757 
2963 1 -0.0244922 0.0626291 -0.0206178 0.0703375 
2608 1 -0.000955919 -0.0131184 0.0283631 0.0312645 
3301 1 0.0329449 0.028924 0.144315 0.150827 
3759 2 -0.0446952 -0.0494259 -0.0372198 0.0763275 
4171 2 -0.116895 0.0279018 0.0892839 0.149715 
2118 1 -0.0211758 0.0133882 -0.0768379 0.080819 
1742 1 0.0046206 0.00869064 0.0419574 0.0430964 
642 1 0.0536048 -0.236908 -0.0107849 0.243136 
3366 1 -0.0606475 0.0125667 0.0638505 0.0889546 
144 1 0.0978414 0.0963666 -0.0271901 0.139996 
681 1 0.0106314 0.00311443 -0.0752423 0.0760534 
1666 1 0.0163925 -0.0530938 -0.0554579 0.0785063 
183 1 -0.0755065 -0.117316 -0.0445525 0.146456 
694 1 -0.113492 0.0245043 0.0672602 0.134182 
444 1 -0.0634763 0.0301567 -0.131078 0.148728 
869 1 -0.0391048 -0.140473 0.13747 0.200399 
920 1 -0.0794604 -0.154894 0.0755967 0.189792 
53 1 0.101453 -0.000654203 0.0477791 0.112143 
1450 1 -0.298098 -0.00736134 -0.0940326 0.312664 
1579 1 0.00570989 -0.0710183 0.0421362 0.0827748 
51 1 0.0958559 -0.0529925 -0.0450154 0.118418 
4187 2 -0.0696184 -0.0817976 -0.140945 0.177209 
1694 1 0.0185865 -0.0956093 0.25141 0.269617 
1590 1 0.0499109 0.0111155 -0.0561844 0.0759693 
2005 1 0.0932664 -0.138305 0.123842 0.207759 
736 1 -0.142889 0.0303451 -0.0305301 0.149232 
363 1 0.147068 0.0114893 -0.00175755 0.147526 
230 1 -0.0267653 -0.00732531 0.13036 0.133281 
2538 1 0.0984075 -0.109306 -0.0328461 0.150701 
357 1 -0.0507205 0.0103512 -0.0640962 0.0823895 
3849 2 0.190627 -0.0654694 -0.162788 0.259085 
4102 2 0.0195331 -0.134856 0.0645742 0.150789 
1032 1 0.0796687 0.0602716 0.0764274 0.125781 
78 1 0.0074228 0.051656 -0.0134547 0.0538932 
564 1 0.300632 -0.0818557 0.0934705 0.325295 
797 1 0.148948 -0.0635011 0.0073725 0.162088 
1476 1 0.258784 0.0680652 -0.00372605 0.267612 
872 1 -0.0643285 0.0240131 -0.0273148 0.0738978 
475 1 0.0458907 -0.0110372 -0.00991977 0.0482305 
4119 2 0.287641 -0.138119 -0.0992746 0.33417 
576 1 -0.104422 0.0780142 0.0853013 0.155777 
507 1 0.044676 -0.164057 0.0374831 0.174114 
248 1 0.041085 -0.0536574 -0.0369028 0.0769994 
3597 2 -0.0652362 0.0469825 0.0715136 0.107598 
539 1 -0.0116241 -0.0436631 0.0287077 0.0535324 
63 1 0.0661385 -0.0279955 0.13168 0.149993 
57 1 -0.0322935 -0.104066 0.0257825 0.11197 
854 1 -0.0779343 -0.00817905 0.021579 0.0812791 
668 1 0.083831 -0.136446 -0.0725932 0.175827 
385 1 -0.0888671 -0.27888 0.132883 0.321449 
752 1 -0.00456382 0.0572715 -0.0334312 0.0664718 
3650 2 0.00935559 0.161493 -0.102935 0.191738 
3736 2 -0.0886014 -0.197123 0.0687074 0.226779 
254 1 -0.16456 -0.1345 0.00557654 0.212606 
3637 2 -0.0226726 -0.0597146 0.00415057 0.0640087 
731 1 -0.0404379 -0.0977467 0.0260616 0.108944 
2304 1 0.0834887 -0.16648 0.023017 0.187658 
610 1 -0.218426 0.0301268 -0.104652 0.244069 
292 1 -0.141782 0.027068 -0.0246547 0.146433 
313 1 -0.0885572 0.000321379 0.0101995 0.0891432 
2133 1 -0.024102 -0.0818983 -0.0496006 0.0987342 
646 1 -0.100013 -0.0297658 -0.0971878 0.142598 
271 1 0.0348768 0.12524 0.0428167 0.136875 
584 1 -0.0459072 0.126699 -0.0535293 0.145001 
3649 2 -0.0839229 -0.0201723 0.0599005 0.105062 
1148 1 -0.0378396 0.132076 0.136364 0.193574 
779 1 -0.128371 -0.0830557 0.0605345 0.164444 
621 1 -0.134302 0.0698273 0.00944534 0.151665 
16 1 -0.0348839 -0.0417934 0.105841 0.119021 
3635 2 -0.0849405 -0.245847 0.0704464 0.269478 
790 1 0.098372 0.0227599 0.128608 0.163508 
17 1 -0.0310521 -0.0524597 0.133409 0.146677 