ITEM: TIMESTEP
14
ITEM: NUMBER OF ATOMS
4320
ITEM: BOX BOUNDS pp pp pp
0.0000000000000000e+00 1.9309999999999999e+01
0.0000000000000000e+00 1.9309999999999999e+01
0.0000000000000000e+00 9.6549999999999994e+00
ITEM: ATOMS id type c_displacement[1] c_displacement[2] c_displacement[3] c_displacement[4] 
4012 2 -0.00485168 -0.0117826 -0.00524781 0.0137807 
2361 1 -0.00273934 0.014598 -0.0155126 0.0214767 
79 1 -0.0165752 -0.0295897 0.0178106 0.038308 
781 1 0.0344856 0.00910615 -0.0102284 0.0371052 
461 1 -0.0104912 -0.0258224 0.000318755 0.0278741 
3704 2 -0.0131046 -0.0184674 0.0223532 0.0318189 
629 1 -0.0176633 -0.00536247 0.0189284 0.0264392 
1571 1 0.00247556 0.00964659 -0.0188487 0.0213181 
58 1 0.0386297 -0.0030533 0.0707765 0.08069 
1073 1 -0.0101638 -0.0181164 0.00812644 0.0223057 
372 1 0.000793712 0.015744 -0.0144615 0.0213925 
3504 2 0.0053282 -0.0367367 0.0138235 0.0396114 
4130 2 -0.0171964 -0.0122976 -0.0106678 0.0236801 
1262 1 0.00665867 0.0364181 -0.0328838 0.0495172 
907 1 -0.0290926 -0.0211604 -0.0519426 0.0631837 
3659 2 0.0294002 0.0592086 -0.0356175 0.0750909 
1298 1 0.0329339 0.0290692 -0.0225979 0.0493997 
1716 1 -0.00198734 0.0512982 -0.0181167 0.0544396 
1182 1 -0.0118591 0.00159316 0.0141865 0.0185589 
683 1 0.000483922 -0.0125911 0.0238535 0.026977 
1958 1 0.0287214 -0.041902 0.0271211 0.0575869 
1554 1 -0.00212022 -0.0300066 -0.0119064 0.032352 
1037 1 -0.0229732 -0.0725899 0.00946001 0.0767238 
749 1 -0.0413446 -0.00223125 0.0160489 0.0444063 
3628 2 0.0332886 0.0238406 0.0219171 0.046442 
946 1 -0.0178529 0.0106186 -0.0155596 0.0259534 
2232 1 0.0269671 0.0113767 -0.0277156 0.0403089 
7 1 0.00222051 -0.0197696 -0.00837935 0.0215866 
501 1 0.0172515 0.055609 -0.0392837 0.0702366 
179 1 -0.00652124 -0.00480964 -0.0407107 0.0415093 
714 1 0.0113371 -0.0143799 0.0531167 0.0561845 
4166 2 0.00278063 -0.017411 -0.039288 0.043063 
276 1 -0.0168039 0.0209893 0.0164075 0.031498 
767 1 -0.0270831 -0.0046075 0.0399938 0.0485204 
3890 2 -0.0504978 -0.0103679 -0.0254087 0.0574728 
6 1 -0.0117449 0.0258666 0.0141619 0.0317424 
2086 1 -0.00483042 -0.0030294 0.0223806 0.0230955 
224 1 -0.009389 -0.00267269 -0.00109595 0.00982332 
3660 2 0.0221587 0.0240414 0.00177319 0.0327436 
596 1 -0.0209928 -0.00429158 -0.021315 0.0302233 
1214 1 -0.00865676 -0.0177268 -0.00131726 0.0197716 
3686 2 0.0194849 0.0161859 0.000396533 0.0253338 
427 1 -0.0137542 0.0278502 0.0216243 0.0378473 
350 1 0.00123942 0.0285499 0.0132673 0.0315064 
85 1 -0.0136969 -0.00632953 -0.0119065 0.0192206 
598 1 -0.0216814 -0.00172997 0.0404469 0.0459242 
3554 2 -0.00133251 -0.0178266 -0.00668707 0.0190861 
29 1 -0.00482415 0.030361 0.0180732 0.0356609 
464 1 -0.0275192 0.0135182 -0.00402615 0.0309234 
3619 2 -0.00305612 0.0102762 0.030586 0.0324106 
12 1 0.0475811 -0.0708067 0.0392877 0.0939206 
364 1 -0.0341237 0.0266579 -0.00802734 0.0440399 
1849 1 -0.0471165 -0.00443582 0.035915 0.0594098 
3663 2 -0.0245714 0.0138791 -0.0468101 0.0546587 
3517 2 0.0235037 0.0122784 0.0154515 0.0306909 
25 1 0.030919 -0.0231619 0.000956136 0.0386441 
4163 2 -0.0199177 0.0146363 -0.00601776 0.0254391 
399 1 -0.00441449 0.00135261 -0.00383186 0.00600003 
4265 2 -0.00249719 0.0303937 -0.000439435 0.0304992 
527 1 -0.0346987 0.0224371 -0.0129956 0.0433164 
200 1 0.0163071 -0.00815399 0.000516956 0.0182394 
1951 1 0.0280134 0.0124678 -0.00196132 0.0307253 
644 1 0.0164727 -0.0166913 0.0301776 0.0382183 
193 1 -0.0143211 0.0378421 -0.0134261 0.0426307 
550 1 -0.00400054 -0.0154263 0.00151332 0.0160083 
69 1 -0.015704 -0.035349 0.0280352 0.0477717 
842 1 -0.00458257 0.0180582 -0.0502219 0.0535662 
578 1 -0.0395852 0.0266614 -0.0143346 0.0498327 
172 1 0.00480566 -0.0480782 0.00734289 0.0488725 
381 1 -0.0215252 0.0514189 -0.0259782 0.0614988 
3524 2 0.0377724 -0.0402656 0.0212375 0.0591532 
688 1 0.000667933 0.0251791 0.00904905 0.0267641 
3651 2 0.00503025 0.0272635 -0.00135007 0.0277565 
2367 1 -0.00733155 0.00620185 -0.0127075 0.0159278 
1244 1 -0.0126267 0.0315898 0.0380328 0.0510278 
796 1 -0.0470044 0.0216205 0.0011375 0.0517508 
691 1 0.0257981 -0.00127526 0.0075695 0.0269159 
421 1 -0.00184766 0.000658022 0.0518075 0.0518446 
597 1 -0.0300846 0.0261112 -0.00939313 0.0409281 
3617 2 -0.00133715 0.00908927 -0.0256495 0.0272452 
120 1 0.0108119 -0.00440716 -0.00389981 0.0123097 
769 1 -0.0214085 0.0288637 0.00993825 0.0372855 
2142 1 0.00978049 0.00397706 0.00312105 0.0110098 
3611 2 0.0352235 0.02787 0.0289122 0.0534167 
1915 1 -0.020848 0.0165528 -0.00828804 0.0278805 
2140 1 -0.0135565 0.00646281 0.0276548 0.0314696 
3828 2 0.0383478 0.00324502 0.0123997 0.0404331 
2192 1 0.0219574 -0.0138088 0.0328295 0.04184 
175 1 0.0215684 0.0166018 -0.0210329 0.0343977 
2011 1 0.0137342 0.0182563 -0.0054495 0.0234865 
75 1 -0.015971 0.0144613 0.0293041 0.0363722 
547 1 -0.0261391 0.0179215 -0.00700466 0.0324577 
4316 2 0.0159694 0.0155532 0.0122416 0.0254318 
559 1 0.00162386 0.00166683 -0.0227443 0.0228631 
717 1 0.0427634 -0.0167075 0.00246458 0.0459774 
242 1 0.00513683 -0.00187704 0.0221376 0.0228031 
3510 2 -0.00512908 0.00270794 -0.00042946 0.00581592 
130 1 -0.0072319 -0.026735 0.0199498 0.0341329 
143 1 -0.00179614 0.00233451 -0.0102626 0.0106769 
202 1 -0.0347592 -0.000424048 -0.0369582 0.0507375 
182 1 -0.0443902 0.0297562 0.000866618 0.0534478 
84 1 0.00608743 -0.0377938 -0.0220484 0.0441765 
3633 2 -0.000671263 -0.0276407 0.0225848 0.0357006 
35 1 -0.0520032 -0.0324698 0.017992 0.0638932 
3612 2 0.00550666 0.0334962 -0.0476195 0.0584802 
40 1 0.0372796 0.0290105 0.0212634 0.0518026 
4005 2 0.0234351 -0.026925 0.00700082 0.0363754 
718 1 0.0134837 0.0374954 0.000800972 0.0398542 
134 1 0.00929063 -0.032149 -0.00845343 0.0345157 
511 1 -0.0073547 -0.0378939 0.0494193 0.0627081 
757 1 0.0215661 0.0568842 -0.00540801 0.061075 
3555 2 -0.0304803 -0.00651079 0.000658132 0.0311748 
3481 2 0.00105711 0.0220561 0.011726 0.0250017 
135 1 0.00629348 -0.0234477 0.00702725 0.0252742 
369 1 0.0203027 -0.0167396 0.0349639 0.0437594 
2148 1 -0.00126999 0.00415599 -0.0181837 0.0186958 
3462 2 0.0224781 -0.029924 -0.0380535 0.053374 
1914 1 -0.0253593 -0.0240028 -0.00814606 0.035855 
3661 2 0.0224807 -0.0201814 0.01059 0.0320128 
1871 1 0.0133161 0.00621909 -0.00614224 0.0159287 
320 1 -0.0192769 -0.0162765 -0.0131975 0.0284727 
582 1 -0.0221495 -0.0281944 0.0145325 0.0386875 
766 1 -0.0166019 0.00561078 -0.00805251 0.019286 
3552 2 -0.00290255 -0.0156148 0.00674674 0.0172559 
2290 1 -0.0148952 0.0284377 0.0301694 0.0440541 
1794 1 0.0011687 -0.0180984 0.00523429 0.0188764 
753 1 -0.0377768 0.0115783 -0.0112523 0.0410823 
396 1 -0.0104989 -0.0212565 0.0160154 0.0286105 
496 1 -0.000712149 0.0309219 -0.0168247 0.03521 
480 1 -0.0110949 -0.0255427 0.0238491 0.0366648 
253 1 0.0181156 -0.000933759 -0.0127775 0.0221881 
4033 2 0.00537969 0.012684 -0.0106782 0.0174312 
347 1 -0.0219095 -0.00310915 0.0287103 0.0362488 
586 1 -0.00549135 0.00647344 -0.040868 0.0417403 
3671 2 0.0485002 0.00471116 -0.0426565 0.0647614 
37 1 -0.0019209 -0.00918294 0.0074663 0.0119901 
782 1 0.00375369 -0.0118971 -0.00328587 0.0129007 
481 1 0.00539913 -0.00822359 -0.0247861 0.026667 
392 1 -0.0188279 0.00432986 -0.0413527 0.045643 
333 1 -0.000645264 -0.0152889 -0.0171164 0.0229595 
342 1 0.0106348 0.0169497 -0.0183162 0.027127 
1179 1 -0.00845643 0.000538306 -0.0117042 0.0144495 
517 1 -0.0128521 -0.00649745 -0.017379 0.0225704 
1824 1 0.0201158 -0.0151001 0.0485843 0.0547092 
34 1 -0.0103238 0.0132152 0.0209388 0.0268264 
398 1 0.0165299 -0.00284864 -0.00476056 0.017436 
170 1 -0.0258572 -0.0151618 -0.0158234 0.0338948 
235 1 0.000836057 -0.051573 -0.00392032 0.0517286 
3852 2 -0.00415195 -0.0361537 -0.00378309 0.0365874 
816 1 0.0161201 -0.000723198 0.0112667 0.0196804 
3931 2 -0.0200107 -0.0353794 0.0407903 0.0575845 
274 1 -0.0178188 -0.0165786 -0.0145118 0.0283364 
30 1 0.0219127 0.0012524 -0.0100288 0.0241312 
2066 1 0.0375595 -0.0256564 0.0296902 0.0543183 
1082 1 0.0187831 0.0172994 0.00435924 0.0259051 
1372 1 0.000594253 -0.00346624 0.0257885 0.0260272 
1265 1 0.011397 0.00753112 -0.0284778 0.0315847 
601 1 0.0298212 0.0151621 0.0311093 0.0456835 
540 1 0.0110143 0.0283477 0.0232454 0.0382786 
589 1 -0.00762863 0.0343278 -8.63474e-05 0.0351654 
958 1 0.00638862 0.0125843 -0.0253114 0.02898 
504 1 -0.0326645 0.0184415 0.00994975 0.0388079 
1349 1 0.00717299 0.0361905 0.0159991 0.0402141 
9 1 -0.00365621 -0.0314825 0.0141643 0.0347151 
149 1 0.0127318 0.0180283 0.0230907 0.0319421 
163 1 0.0152375 0.0129594 -0.027678 0.0341497 
4247 2 0.00505506 -0.0111286 -0.0269561 0.0295978 
1584 1 0.0520759 -0.0129437 -0.052799 0.0752806 
3570 2 -0.0214052 -0.0149671 -0.00805522 0.0273328 
237 1 0.00738705 0.00970456 -0.00699198 0.0140583 
490 1 -0.00447354 -0.0116482 0.0267486 0.0295158 
50 1 -0.0190036 -0.0461154 0.0219264 0.0544842 
152 1 -0.0016646 0.00870135 0.0147156 0.0171766 
3652 2 0.01744 -0.00448014 -0.00542999 0.0188072 
3823 2 -0.0119266 0.0213582 -0.0214425 0.0325299 
902 1 0.012904 0.0300521 -0.00862586 0.0338237 
3574 2 -0.00902978 0.0148253 -0.0209095 0.027176 
770 1 3.68298e-05 -0.0239973 0.000285576 0.023999 
154 1 0.00934999 0.00483454 -0.023078 0.0253652 
116 1 0.0284931 -0.0279528 0.0039076 0.0401059 
710 1 -0.029836 -0.0485931 0.0053862 0.0572755 
1956 1 -0.00968662 0.0272299 -0.0509132 0.0585445 
1810 1 -0.0370978 -0.00920577 0.0343365 0.0513808 
2072 1 -0.00402541 -0.0159045 -0.0312697 0.0353122 
1649 1 0.0115131 -0.0107267 -0.0102737 0.0187927 
186 1 -0.00857493 -0.0301516 0.036502 0.048115 
1063 1 -0.00941068 0.00418884 -0.0404774 0.0417675 
432 1 -0.0272005 0.0197016 -0.0324081 0.0466723 
2495 1 -0.0361894 -0.0346064 0.0279185 0.0573298 
3896 2 -0.00462577 -0.00615933 -0.00801009 0.0111129 
1071 1 -0.0153968 -0.01294 -0.0202921 0.0285705 
913 1 0.0271563 -0.0375548 0.0156572 0.048918 
1068 1 0.0406092 0.0143244 0.00983006 0.0441693 
265 1 -0.0169624 0.01058 0.00660504 0.0210543 
1287 1 -0.00428241 0.0399378 -0.00911828 0.0411887 
3799 2 -0.0012316 -0.0102306 -0.0211941 0.0235663 
554 1 0.00831944 -0.00147678 -0.0268261 0.0281253 
1414 1 -0.0110479 0.02129 -0.0393919 0.0461199 
213 1 0.00801497 -0.024758 -0.00475826 0.0264545 
341 1 -0.0210067 -0.0115162 -0.0148194 0.0281695 
3682 2 -0.0256114 0.00191861 -0.0300785 0.0395517 
754 1 -0.0133431 0.0596874 -0.0101674 0.062 
112 1 -0.0155155 0.0125134 0.00216213 0.0200497 
1041 1 -0.0196626 -0.0588657 -0.000637948 0.0620661 
119 1 -0.00562003 -0.0224636 0.0390352 0.0453866 
415 1 0.017857 0.010566 -0.00956216 0.0228462 
995 1 0.00725947 0.0223118 0.00716173 0.0245318 
4128 2 -0.0201719 -0.0196508 0.0443858 0.0525658 
8 1 0.0328807 0.0300108 -0.00278704 0.0446044 
94 1 -0.00808705 -0.0141932 0.0163252 0.0230946 
48 1 -0.0106747 0.000113849 -0.00390127 0.0113659 
1270 1 0.0224689 -0.0245568 0.00801405 0.0342362 
3866 2 0.00674331 0.00564618 -0.00613176 0.0107215 
2206 1 0.0134408 -0.010847 1.82763e-05 0.0172717 
3490 2 -0.016641 -0.0255508 -0.0150502 0.0340041 
3072 1 0.00568064 -0.0143517 0.0414133 0.0441961 
3002 1 0.0380991 -0.025828 0.0163537 0.0488475 
92 1 -0.00939472 0.0526395 0.0203674 0.0572189 
335 1 -0.0177147 0.0261983 -0.0215634 0.0382772 
4034 2 -0.04396 -0.0337519 0.0101272 0.0563403 
1186 1 0.0110519 0.00536768 0.00380474 0.0128621 
1114 1 0.0418516 0.0124836 0.0073542 0.0442886 
1821 1 -0.0112333 -0.0151153 -0.0156257 0.0244708 
1922 1 -0.0110748 -0.0348509 -0.011168 0.0382356 
451 1 -0.0192773 -0.0175956 -0.0100235 0.0279588 
3960 2 0.00233769 -0.00877026 0.0017889 0.00925107 
100 1 -0.0139705 0.018184 -0.00839545 0.0244196 
1180 1 -0.0117949 -0.0267379 -0.0179273 0.0342845 
165 1 0.0339054 0.00559434 -0.0103564 0.0358905 
388 1 -0.0280634 -0.0254712 -0.0169968 0.0415358 
3742 2 0.0378805 -0.0141069 0.023516 0.0467647 
323 1 -0.0214156 0.0300502 -0.0463082 0.0592122 
288 1 -0.0155169 0.00219678 0.0133818 0.0206076 
3942 2 -0.0168702 0.0220024 0.0405498 0.0491222 
66 1 0.0114282 0.0200428 0.0154744 0.0277808 
340 1 -0.00239285 -0.0417307 0.0129906 0.0437714 
138 1 -0.011538 0.026127 0.00431519 0.0288854 
879 1 0.00167878 0.00215665 -0.0145376 0.0147923 
3808 2 0.0131114 -0.0224778 0.00748034 0.0270761 
834 1 -0.0212887 0.00501749 0.00968136 0.0239188 
18 1 -0.0126546 -0.0212022 -0.0323828 0.0407225 
3679 2 -0.00291973 -0.00988817 0.00255455 0.010622 
52 1 -0.00322447 0.00592202 -0.0052806 0.00856459 
407 1 -0.0361942 -0.00231842 -0.0218323 0.0423326 
360 1 0.0289264 0.00626103 -0.0586203 0.0656679 
2885 1 -0.0180685 -0.0237218 -0.0179918 0.0348267 
3526 2 0.00145176 -0.0473518 -0.0119539 0.048859 
310 1 -0.0347408 -0.0019956 0.00925365 0.0360075 
326 1 0.01153 -0.0168598 0.0163829 0.0261839 
227 1 -0.00430337 -0.00201753 0.00332895 0.0058027 
2068 1 -0.0177335 -0.0396047 -0.0494727 0.0658069 
456 1 0.000555569 -0.00171543 0.00952878 0.00969788 
279 1 -0.0190558 0.0121131 0.0202953 0.0303604 
305 1 -0.0476776 0.0033812 -0.00487815 0.0480456 
49 1 0.0126804 0.00641675 0.0116711 0.0183897 
3512 2 -0.00935373 -0.0386016 0.0252175 0.0470478 
11 1 -0.00601106 -0.0268574 -0.00928624 0.0290463 
189 1 0.00156883 0.0202082 0.0298218 0.0360579 
2271 1 -0.0111779 -0.014124 -0.0173953 0.0250406 
319 1 -0.0306846 -0.0121398 -0.0100327 0.0344902 
3566 2 -0.0148704 0.0158027 -0.00784063 0.0230723 
71 1 -0.0281468 0.00740174 -0.00430134 0.0294199 
1560 1 -0.0144957 -0.0107157 0.0273468 0.0327536 
190 1 0.00835818 -0.0156824 0.00345579 0.0181036 
123 1 0.0202739 0.0102233 0.019444 0.0298934 
27 1 -0.0188409 0.00156799 -0.0151952 0.0242555 
162 1 -0.00130583 0.00172538 -0.03272 0.0327915 
255 1 -0.0301718 0.0103176 -0.0188891 0.0370619 
304 1 -0.0333899 0.00529159 -0.0154667 0.0371767 
321 1 -0.00119605 -0.03302 0.0489228 0.0590355 
682 1 -0.0238754 0.00260446 -0.00147233 0.0240621 
3469 2 0.0425468 0.036916 -0.0310177 0.0643048 
3539 2 0.0239485 0.0337082 0.0117883 0.042997 
128 1 0.031429 -0.0154211 -0.00110646 0.0350259 
3562 2 0.0422325 0.0145877 0.0104972 0.0458975 
560 1 -0.02795 -0.0199825 0.014814 0.037416 
212 1 0.0168902 0.0118651 0.0126161 0.0241915 
355 1 0.00350295 0.0255829 0.0449904 0.0518738 
156 1 0.0421147 0.00728106 0.0190391 0.0467883 
3620 2 -0.0168179 -0.00839707 0.0117809 0.0221843 
1823 1 0.0494783 -0.0469195 -0.0280521 0.0737324 
1805 1 0.00736403 0.0307652 0.0329825 0.0457009 
2599 1 0.0127598 0.023103 -0.0170754 0.0314346 
327 1 -0.0184273 0.012198 -0.00913344 0.0239119 
137 1 0.0261404 -0.00799466 0.0400034 0.0484511 
2334 1 -0.00451086 0.0176247 0.00445337 0.0187299 
3698 2 0.00880957 -0.0320403 0.0120016 0.0353303 
555 1 0.0153744 -0.0128181 -0.00979463 0.0222847 
4178 2 0.0222163 0.000374903 0.00878388 0.0238927 
290 1 -0.00277049 0.0267426 -0.0150915 0.0308317 
284 1 -0.0240049 -0.0129944 -0.0278054 0.0389644 
3543 2 0.0222255 0.00188087 0.00555904 0.0229872 
366 1 0.00895012 -0.0176791 -0.00701493 0.0210206 
55 1 -0.00863567 0.00169169 0.00245214 0.00913508 
273 1 -0.00886425 -0.00866458 0.00278833 0.0127053 
3468 2 0.0182398 0.00430887 0.000843161 0.0187608 
316 1 0.0205951 -0.0261656 0.0438638 0.0550711 
81 1 -0.0340429 0.0207095 0.0236044 0.0463138 
322 1 0.015041 0.00601159 -0.0173759 0.0237548 
239 1 -0.0154576 0.00895022 -0.0156315 0.0237358 
734 1 -0.0302349 -0.0338918 -0.0133125 0.0473289 
384 1 0.0321713 -0.0105042 -0.00460379 0.0341545 
3476 2 -0.0131052 0.0280537 0.00626704 0.0315916 
311 1 0.0304599 -0.0218635 -0.0184023 0.0417668 
3471 2 -0.0217428 0.00732532 -0.0106204 0.0252824 
1938 1 -0.00903094 -0.0150153 -0.0104199 0.020386 
139 1 0.0411786 -0.0157095 -0.0126765 0.0458602 
727 1 -0.00556243 -0.0108201 0.0101361 0.0158353 
1885 1 0.00391692 0.0254788 -0.0343569 0.0429524 
2184 1 0.00966411 0.0750166 -0.0478037 0.0894767 
2494 1 -0.0374489 -0.0372801 -0.0254962 0.0586709 
2091 1 -0.0194006 -0.0125592 -0.0123632 0.02621 
281 1 0.0272858 0.0148589 0.027939 0.0417839 
863 1 -4.26934e-05 0.0432138 0.0104277 0.0444541 
176 1 -0.038365 0.0200821 -0.0249778 0.0499905 
3710 2 -0.000218796 0.0252518 -0.00635701 0.0260406 
3572 2 0.00352001 -0.0212154 0.002446 0.0216441 
4197 2 -0.0294248 0.00459287 0.00488536 0.0301791 
343 1 0.00658252 -0.0156478 -0.0386227 0.0421888 
282 1 -0.000125252 -0.00272173 0.00510705 0.00578839 
1038 1 -0.00371952 -0.00669198 -0.00800697 0.0110783 
408 1 0.0571954 0.0505228 -0.0145792 0.0776944 
412 1 0.0424607 -0.0209565 0.000223895 0.0473512 
820 1 0.0245045 -0.00177507 -0.00182112 0.0246361 
585 1 -0.0112927 -0.0157694 -0.0172094 0.0259299 
3609 2 0.0285863 -0.00309753 -0.00154694 0.0287952 
719 1 -0.0252318 0.0216435 -0.00531512 0.033665 
608 1 0.00552876 -0.0401586 -0.00979477 0.0417039 
106 1 -0.000310827 0.0286195 0.00486073 0.029031 
1047 1 -0.0446166 -0.0069138 0.00406037 0.0453313 
3573 2 -0.000455846 0.00674668 -0.0171291 0.0184155 
751 1 -0.0241505 -0.00306677 0.00338778 0.024579 
259 1 0.0243393 -0.0328005 0.00919848 0.0418675 
245 1 -0.0293689 0.00332875 -0.0337053 0.0448292 
613 1 -0.0151295 0.00395013 0.0566775 0.0587949 
4296 2 -0.0112457 0.00921241 0.011839 0.0187482 
272 1 -0.0270888 -0.0337725 0.00103346 0.0433065 
4239 2 0.000867799 -0.0359964 -0.0176321 0.0400922 
88 1 0.0182908 0.0376459 0.0167627 0.0450861 
4 1 0.0558524 0.00103563 -0.0198627 0.0592882 
361 1 0.0179686 0.0377839 -0.049586 0.0648789 
358 1 -0.00179521 -0.0107664 0.0217829 0.0243646 
194 1 0.00105326 0.0109838 -0.0267385 0.0289258 
2373 1 -0.00540467 -0.0252886 -0.0150287 0.0299096 
1982 1 -0.00737765 -0.0135789 -0.0384818 0.0414689 
3953 2 -0.0151831 0.00936422 0.00499828 0.0185256 
414 1 0.0023143 0.00321566 -0.0108338 0.0115355 
3186 1 0.0208839 -0.025958 0.0211057 0.0394387 
177 1 0.0288516 -0.0065262 0.0372971 0.0476034 
1962 1 -0.013957 0.0158285 0.013759 0.0251923 
706 1 0.0211516 -0.00179089 0.0016782 0.0212935 
1544 1 -0.0109169 -0.00314482 -0.0103682 0.0153808 
4160 2 -0.00295044 0.00333713 -0.00469523 0.00647199 
19 1 -0.00494471 -0.0343878 -0.0246238 0.0425829 
3624 2 0.011057 -0.0181803 -0.016904 0.0271759 
115 1 0.0497988 -0.0270256 -0.0064107 0.057021 
1102 1 -0.0367546 0.0109107 -0.0124116 0.0402988 
1492 1 0.0207255 0.00594122 0.0179522 0.0280557 
649 1 0.0283228 0.0479381 -0.0237848 0.0605472 
113 1 -0.00562615 0.0213753 0.000899555 0.0221216 
1150 1 0.0235644 -0.00846831 0.0129941 0.0282106 
620 1 -0.0528342 0.0261996 0.0183023 0.0617482 
739 1 -0.0114971 -0.00680974 0.00922108 0.0162353 
2412 1 -0.000616361 0.0411925 0.00742945 0.0418617 
3746 2 0.028908 0.00516612 -0.048817 0.0569689 
1225 1 0.0187899 0.0309458 0.0301369 0.0471056 
241 1 0.0165125 0.03287 -0.00724361 0.0374909 
83 1 0.0146707 0.0301458 -0.010045 0.0349986 
1006 1 0.00229434 0.00222122 -0.00401218 0.0051279 
4046 2 -0.0552468 0.00338889 -0.0158737 0.0575818 
96 1 0.0238297 -0.0314021 -0.00740304 0.0401092 
411 1 0.0226611 0.0184933 0.0120071 0.031618 
2454 1 0.00163283 -0.00718577 -0.0156284 0.0172786 
404 1 -0.00393895 0.0126027 0.0278313 0.0308046 
226 1 0.0332625 -0.00233827 0.0345209 0.0479954 
534 1 0.0156749 -0.0051632 0.0321546 0.0361425 
3538 2 0.013698 0.0167343 0.0138343 0.0256721 
761 1 0.0269763 0.016615 0.00104386 0.0316996 
246 1 0.0386154 -0.0333305 0.0218945 0.0555107 
2229 1 0.0233417 -0.0110239 0.0167135 0.0307522 
146 1 -0.00197567 0.0312053 -0.00807026 0.0322925 
3608 2 0.0174536 -0.0248126 -0.0165116 0.0345387 
503 1 -0.0167607 -0.00154944 0.0193258 0.0256282 
505 1 0.0222377 -0.00436722 -0.0190127 0.0295816 
1430 1 -0.0247853 -0.0162006 0.00723788 0.0304821 
97 1 -0.000755114 0.0193431 -0.00942135 0.0215288 
1723 1 0.0134379 -0.020444 -0.0350286 0.0427263 
3561 2 -0.00548523 0.0261272 0.0022229 0.0267892 
20 1 -0.0158448 -0.0334594 -0.0213234 0.0427232 
263 1 -0.0318223 0.0259913 0.0224891 0.0468398 
817 1 0.0296573 -0.0189641 -0.00639647 0.0357786 
1034 1 0.0064349 0.00869854 0.00781083 0.0133447 
353 1 0.0177719 -0.0129916 0.0071771 0.0231545 
1260 1 0.0152514 0.0184691 -0.0128204 0.0271676 
998 1 0.00835036 0.0107002 -0.0171409 0.021864 
1932 1 0.028102 -0.0311616 0.0045301 0.0422053 
36 1 0.0181959 -0.0264467 0.0261098 0.0413792 
38 1 -0.0282482 -0.0207632 -0.0235101 0.0422113 
3130 1 0.00328722 0.0182955 -0.0145875 0.0236289 
1973 1 0.0320112 -0.0346549 0.0514981 0.0698408 
307 1 -0.0173787 -0.0156115 -0.0358848 0.0428189 
2714 1 0.0488051 0.0183476 0.00834723 0.0528039 
28 1 -0.00796097 -0.0177809 -0.0219288 0.0293327 
1937 1 -0.00332727 -0.00326776 -0.0157438 0.01642 
562 1 -0.0260575 -0.0302514 -0.00268587 0.0400169 
3011 1 -0.035427 -0.0179378 0.0126109 0.0416638 
410 1 0.0418808 -0.00492502 0.0109898 0.0435779 
693 1 0.0246745 0.045181 -0.00776639 0.0520622 
367 1 -0.0185018 0.00113853 -0.00702272 0.0198225 
318 1 0.0415926 0.0128804 0.0021206 0.043593 
735 1 0.0229095 -0.0219346 0.0228842 0.0391108 
600 1 -0.0204287 0.0211239 0.0316259 0.0431712 
3590 2 -0.0292863 0.0109775 -0.0496151 0.0586503 
3636 2 0.0213323 -0.0546059 0.0107815 0.059608 
26 1 -0.0121879 0.0303146 0.0156039 0.0362078 
1199 1 0.0227181 -0.0107843 -0.0066196 0.0260044 
614 1 0.00548741 -0.0202177 -0.00753119 0.0222618 
459 1 0.0321513 0.00197857 -0.0141739 0.0351926 
3645 2 0.0228082 0.0337868 0.0104683 0.0420874 
574 1 0.0025514 0.0276518 -0.0295107 0.0405218 
780 1 0.0320863 -0.00704109 -0.00650551 0.0334877 
161 1 0.0112259 0.039438 -0.0229642 0.0469971 
309 1 0.0381669 0.0143711 0.00584629 0.0411998 
365 1 -0.0132596 -0.0102567 -0.000717848 0.0167789 
191 1 -0.0149618 0.0371582 -0.00352832 0.0402124 
1766 1 0.025431 0.0507032 -0.0187555 0.0597437 
2775 1 -0.0199144 -0.0332946 -0.0138933 0.0412084 
1030 1 -0.0112408 -0.0068373 0.0283886 0.0312893 
1505 1 0.013737 0.0413071 0.0336801 0.0550393 
3872 2 -0.0033412 0.0190238 -0.00444516 0.0198199 
580 1 -0.0142855 -0.026159 -0.019968 0.035876 
2054 1 -0.0554946 -0.0196809 -0.0231102 0.063254 
2064 1 0.0136431 0.0016446 -0.020256 0.0244774 
529 1 0.0101895 0.00846455 -0.0246157 0.0279537 
402 1 0.00722975 0.0229896 -0.0216399 0.0323894 
124 1 0.00996222 -0.0199144 -0.00413476 0.0226478 
744 1 0.00570215 0.0293552 -0.00570033 0.0304423 
185 1 0.0371447 -0.0212044 0.0500151 0.0658094 
315 1 0.00146028 -0.0219601 -0.0259652 0.0340378 
655 1 -0.0236367 0.0154596 0.0132165 0.0311828 
765 1 -0.0128414 0.0485287 0.0162075 0.0527506 
140 1 0.0101292 0.021083 0.0193081 0.0303298 
59 1 -0.013479 -0.0152732 0.00904622 0.0222888 
54 1 0.0119531 0.0148043 0.054506 0.0577317 
3506 2 0.0246081 0.00775506 -0.00539761 0.0263597 
666 1 -0.0225748 -0.0227772 0.0197958 0.0376869 
43 1 0.00454573 0.0653682 0.0144042 0.0670905 
334 1 0.0132111 0.0234646 0.00952906 0.0285644 
267 1 0.022091 0.0197011 0.0153237 0.0333311 
99 1 0.0361548 -0.0266736 0.0427161 0.0619945 
1189 1 -0.0301833 -0.0273248 -0.0413992 0.0580653 
201 1 0.0154971 -0.0109717 -0.0204488 0.0279051 
380 1 0.0234274 0.0281235 -0.0373652 0.0523061 
1777 1 0.0180458 -0.00926756 -0.0217614 0.0297505 
2597 1 0.0596577 0.00158996 -0.0332275 0.0683054 
2484 1 0.0554991 0.0108238 -0.0290869 0.0635873 
308 1 -0.02953 -0.0205514 -0.0164475 0.0395588 
3918 2 -0.0100062 0.0204304 -0.016337 0.0280075 
89 1 -0.0179969 -0.0287072 -0.0201915 0.0394422 
300 1 -0.00208644 0.0195179 -0.00624435 0.0205984 
3582 2 0.0081 0.0575529 -0.00514126 0.058347 
712 1 -0.0254124 0.0115813 0.0268174 0.0387181 
3836 2 6.15648e-05 0.00654489 -0.0171275 0.0183355 
268 1 0.0197745 0.0129482 -0.0130599 0.0270046 
788 1 0.0168385 -0.0109937 -0.0321008 0.0378795 
4091 2 -0.0130677 0.0265637 0.0396046 0.0494461 
371 1 0.0261963 -0.00879802 -0.0152716 0.0315733 
3505 2 0.00102587 -0.0125078 0.0360867 0.0382066 
266 1 -0.0100485 -0.00351749 -0.00362324 0.011246 
3571 2 -0.0457911 0.0520145 -0.0100476 0.0700235 
637 1 -0.0153867 0.00382355 0.00360445 0.0162592 
157 1 0.0447927 0.0109646 0.000890045 0.0461238 
257 1 0.0026899 0.024876 0.0383535 0.0457935 
571 1 -0.0281245 -0.00790046 -0.02887 0.0410717 
665 1 -0.0181869 0.0228479 0.0334429 0.0443984 
448 1 -0.0352761 -0.00150415 0.00431679 0.0355711 
827 1 0.049667 0.0245597 -0.00140233 0.0554253 
3475 2 -0.0146799 -0.0116245 0.0102905 0.0213664 
73 1 -0.00549049 0.0404253 -0.0125996 0.0426978 
373 1 0.00458253 -0.0284414 0.0145629 0.0322799 
247 1 -0.00979905 0.00115521 0.00249473 0.0101774 
107 1 0.0133128 0.00334052 0.0182943 0.0228707 
675 1 0.0112555 0.0167695 -0.0418738 0.04649 
434 1 0.0001135 0.0223962 0.0144395 0.0266477 
159 1 0.00757004 -0.0028234 -0.00525951 0.00964051 
32 1 -0.00210366 0.0180539 -0.00807954 0.0198909 
3579 2 -0.00930068 -0.0379355 -0.0011743 0.0390767 
394 1 -0.018189 -0.00624119 0.0087199 0.0211147 
260 1 -0.0292077 -0.00562839 0.00806616 0.0308193 
3972 2 -0.0130146 0.00286515 0.0464133 0.0482886 
1801 1 -0.0313732 -0.00569301 0.0240953 0.0399659 
2122 1 -0.00323493 0.0222438 0.0148818 0.0269577 
1966 1 0.0188763 0.0165322 -0.0202726 0.0322584 
291 1 0.00048673 -0.00862054 0.0126437 0.0153106 
2047 1 0.0200376 -0.00522429 0.00910768 0.0226218 
1899 1 -0.0223953 0.0744991 0.0100329 0.0784368 
622 1 -0.0343401 -0.000971866 0.00682018 0.0350243 
1993 1 -0.00243921 0.0154074 0.001121 0.0156395 
62 1 0.0279465 0.0198222 -0.000785296 0.0342716 
2187 1 0.024742 0.00336602 -0.0354303 0.0433452 
4318 2 0.013382 -0.0180761 -0.00399721 0.0228429 
44 1 -0.0268982 -0.0317512 0.0105138 0.0429208 
824 1 -0.0268877 -0.00428528 -0.00210706 0.0273084 
1282 1 -0.025202 -0.0114573 0.0342543 0.0440428 
3626 2 0.000971027 0.00980139 -0.00158427 0.00997597 
819 1 0.0230499 -0.00882466 -0.0044038 0.0250712 
773 1 -0.0173096 -0.0238148 0.00521381 0.029899 
270 1 0.0271283 -0.0301877 0.032622 0.0520715 
14 1 -0.0226893 0.0290522 -0.0215907 0.04272 
3540 2 0.0162274 -0.0305974 -0.000114839 0.0346344 
997 1 0.0257878 0.0197766 0.0216815 0.0390668 
4275 2 -0.0045291 -0.0324477 -0.0195718 0.038163 
164 1 0.0100357 0.0216079 0.0565869 0.0613978 
234 1 -0.0311423 -0.020336 0.010458 0.0386364 
1125 1 -0.00133452 0.0369502 -0.020897 0.0424709 
3985 2 -0.0320972 -0.00658949 0.0268593 0.0423683 
328 1 0.00297765 -0.00539553 -0.0178623 0.0188955 
3474 2 0.00298018 0.0136297 -0.00223435 0.0141295 
543 1 -0.00978556 -0.0222881 0.0044481 0.0247447 
293 1 0.0123795 -0.00940942 -0.000897431 0.0155754 
3458 2 0.0196018 -0.0288933 0.0117 0.0368232 
390 1 -0.0132436 -0.0279569 0.0264279 0.0406868 
3706 2 0.0593389 -0.00506848 -0.0339262 0.0685403 
2169 1 0.0176792 -0.00283368 0.0151071 0.0234267 
1786 1 -0.0267934 0.0200812 -0.0259953 0.0423898 
1478 1 0.0152698 -0.0108827 0.0292831 0.0347721 
87 1 -0.0202343 -0.0186342 0.00211773 0.0275889 
4090 2 -0.00475778 -0.0294815 0.0365432 0.0471932 
142 1 -0.011063 0.00873884 0.0284714 0.0317707 
1650 1 -0.0264233 -0.00751659 -0.0296406 0.0404135 
153 1 -0.000822809 0.0129146 0.0109303 0.0169392 
374 1 0.00546675 -0.0209899 0.0178185 0.0280706 
602 1 -0.0106512 -0.00266358 0.00355857 0.0115415 
1277 1 -0.0233584 -0.00449269 0.0106819 0.0260749 
76 1 -0.0352827 -0.00824205 0.00420487 0.0364758 
1370 1 0.00957235 -0.0213083 0.0366602 0.04347 
221 1 0.0176042 -0.0176618 -0.033381 0.041667 
604 1 -6.93179e-05 0.0311502 0.0233446 0.038927 
1161 1 -0.0197842 0.00247844 0.0398452 0.0445555 
1718 1 -0.0365048 -9.16588e-05 -0.0149546 0.0394493 
178 1 0.0301832 -0.0343515 -0.00169916 0.0457595 
295 1 -0.0189637 -0.0202126 0.00170913 0.0277685 
1472 1 -0.0269016 -0.0329852 0.0176677 0.0460854 
4159 2 -0.00758434 -0.0233503 -0.0138438 0.0281852 
3467 2 0.0350823 -0.000832108 0.009785 0.0364309 
3531 2 0.0316612 0.00189466 0.0501826 0.059366 
2720 1 -0.0602258 0.013127 -0.00131856 0.0616539 
1851 1 0.0147153 0.0254722 0.0012838 0.0294452 
732 1 -0.0290404 -0.0268549 0.00050223 0.0395573 
4009 2 0.025704 0.0244725 -0.0146001 0.0383766 
3878 2 0.00216677 0.00382385 -0.00861599 0.00967223 
3185 1 -0.00971758 -0.00524507 -0.00429905 0.0118501 
110 1 -0.0410656 -0.0010072 0.00605305 0.0415215 
2963 1 -0.00353279 0.0158219 0.00161204 0.0162914 
2608 1 -0.0105317 -5.48439e-05 0.00925419 0.01402 
3301 1 0.00531859 -0.0133795 -0.00102313 0.0144342 
3759 2 -0.00748943 0.0258637 -0.00478989 0.0273489 
4171 2 0.0129178 0.00226153 0.00551052 0.014225 
2118 1 -0.0153856 -0.00761856 -0.0430475 0.0463449 
1742 1 0.024634 -0.0411655 0.00200665 0.0480152 
642 1 0.0196194 -0.0346015 0.0301241 0.0498964 
3366 1 -0.0334933 0.00908873 0.0197934 0.0399523 
144 1 0.0454196 0.0119245 0.00321894 0.0470691 
681 1 0.0217581 -0.0183127 -0.0156196 0.032446 
1666 1 0.0382107 -0.011988 -0.0211962 0.0453106 
183 1 -0.0330289 -0.0120134 -0.00462386 0.0354487 
694 1 -0.0355303 0.0105363 0.0340943 0.0503571 
444 1 -0.00665102 0.0391519 -0.024022 0.046413 
869 1 -0.000443623 -0.0415042 0.0244382 0.0481665 
920 1 -0.00491428 -0.0244985 -0.0126621 0.0280117 
53 1 0.0151412 0.00254823 0.0096016 0.0181091 
1450 1 -0.058879 -0.0319568 0.01343 0.0683252 
1579 1 0.0451724 -0.0223244 0.026033 0.0567154 
51 1 0.0209335 0.00301314 0.0198348 0.028995 
4187 2 -0.0259631 -0.00991022 -0.0715068 0.0767171 
1694 1 0.0140913 -0.0313764 0.0047416 0.0347207 
1590 1 0.000635509 0.026594 0.000943856 0.0266184 
2005 1 -0.0125477 0.00666646 0.0719499 0.0733395 
736 1 -0.00679744 -0.0143921 -0.0348967 0.0383551 
363 1 0.00445013 -0.00231084 0.0168912 0.0176198 
230 1 0.00111613 -0.00165334 0.0638168 0.0638479 
2538 1 -0.0107566 0.011536 -0.0281478 0.0322658 
357 1 -0.0458891 -0.000732657 0.00947599 0.046863 
3849 2 0.0370251 0.00685996 0.0308398 0.0486725 
4102 2 0.0370477 -0.0383138 0.0143537 0.0551952 
1032 1 0.0260371 -0.00932044 -0.000787618 0.0276663 
78 1 -0.000838227 -0.00223447 0.00212996 0.00319878 
564 1 0.0184946 -0.00387247 0.0451224 0.0489191 
797 1 0.0491987 -0.00938643 -0.016158 0.0526279 
1476 1 0.0442625 -0.0132375 -0.0126887 0.0479103 
872 1 -0.0241947 -0.0215123 -0.000957853 0.0323895 
475 1 -0.0173049 -0.00685113 -0.00182416 0.018701 
4119 2 0.0115037 -0.0124232 -0.00495618 0.0176418 
576 1 -0.0438054 0.0187526 0.0302661 0.05645 
507 1 0.0209317 0.00672865 0.0159638 0.0271708 
248 1 0.0447917 -0.0192543 -0.00430361 0.0489443 
3597 2 -0.0184891 0.00562258 -0.0121375 0.0228206 
539 1 -0.000993827 0.0160519 0.0429379 0.045851 
63 1 0.0392027 0.00302542 -0.000186079 0.0393197 