ITEM: TIMESTEP
96
ITEM: NUMBER OF ATOMS
4320
ITEM: BOX BOUNDS pp pp pp
0.0000000000000000e+00 1.9309999999999999e+01
0.0000000000000000e+00 1.9309999999999999e+01
0.0000000000000000e+00 9.6549999999999994e+00
ITEM: ATOMS id type c_displacement[1] c_displacement[2] c_displacement[3] c_displacement[4] 
4012 2 0.00887278 -0.133427 -0.071903 0.151828 
2361 1 -0.0662236 -0.0291076 -0.148739 0.165397 
79 1 0.0582241 -0.0363704 -0.0757515 0.102231 
781 1 0.0452173 0.0716979 0.12231 0.148811 
461 1 0.0437968 0.0501929 0.0932733 0.114618 
3704 2 0.0593325 -0.0909486 0.0701003 0.129252 
629 1 -0.00642929 0.0901145 0.0604047 0.108677 
1571 1 0.0389192 -0.0707013 -0.0668736 0.104812 
58 1 0.049661 0.18543 -0.00310282 0.19199 
2372 1 -0.0768929 -0.0314474 -0.0528368 0.0984539 
372 1 -0.00903264 -0.0720818 -0.0432757 0.0845586 
3504 2 -0.0589629 -0.0423218 0.0473992 0.0866859 
4130 2 0.0549892 -0.00990183 -0.0861792 0.102707 
1262 1 0.0298941 -0.0158199 -0.057564 0.0667648 
907 1 -0.102605 -0.0293194 -0.160119 0.19242 
3659 2 0.0452329 0.0646458 -0.0337103 0.0857991 
1298 1 0.07291 0.0447536 -0.0845757 0.120299 
1716 1 0.0373727 0.0421346 -0.0352144 0.0664236 
1182 1 0.00943923 0.0563001 -0.0445331 0.0724016 
683 1 0.0475492 -0.0618122 0.0123419 0.0789556 
1958 1 -0.0825414 0.014873 -0.0355234 0.0910835 
1554 1 0.0261961 -0.0772603 -0.062753 0.102924 
1037 1 -0.0203197 -0.089078 -0.00551787 0.0915326 
749 1 0.0298471 -0.174524 -0.0624417 0.187746 
3628 2 0.0287968 -0.00907628 0.0522513 0.0603476 
946 1 -0.133443 -0.0668082 0.0384511 0.154107 
2232 1 -0.110836 -0.188743 -0.155689 0.268603 
7 1 0.0333018 -0.0688979 0.0732961 0.105963 
501 1 0.0161171 -0.0469552 0.0398953 0.0636882 
179 1 -0.0492502 0.00805192 0.0850462 0.0986066 
714 1 -0.110008 0.0552568 -0.000320062 0.123106 
4166 2 0.00814042 -0.0310347 0.117691 0.121986 
276 1 -0.000956451 -0.0823771 0.0461344 0.0944208 
767 1 0.0533263 0.0176414 0.0655434 0.0863183 
3890 2 -0.115743 -0.0560548 -0.0444019 0.136052 
6 1 0.0145386 0.1681 0.0853289 0.189077 
2086 1 0.109412 0.0241385 0.00289667 0.112081 
224 1 0.113398 -0.0932129 0.0239078 0.148726 
3660 2 0.0376096 -0.040045 0.115349 0.127763 
596 1 -0.0557783 -0.0452735 -0.0463006 0.0854672 
1214 1 0.10198 -0.0309081 -0.0479924 0.116869 
3686 2 -0.059397 -0.00445971 0.0435023 0.0737587 
427 1 -0.155338 -0.00447573 0.0508865 0.163522 
350 1 0.0548265 0.0385743 -0.0723494 0.0986324 
85 1 -0.0683862 0.0398683 0.0868778 0.117533 
598 1 0.0475303 -0.177412 0.0288352 0.185918 
3554 2 0.110038 0.00845835 -0.0238811 0.112917 
29 1 -0.240103 0.106296 -0.0223876 0.263532 
464 1 0.0175301 -0.0348886 -0.0761064 0.0855377 
3619 2 -0.0754396 -0.0368655 0.162875 0.183244 
12 1 -0.0825631 0.0304519 -0.0711251 0.113149 
364 1 -0.149117 -0.0244725 -0.0331982 0.154715 
1849 1 -0.0888526 -0.0521938 -0.12623 0.162951 
3663 2 -0.228819 0.0618128 -0.0982736 0.256587 
3517 2 0.00231097 0.0249614 0.163317 0.165229 
25 1 0.201379 0.0572359 -0.0617288 0.218266 
4163 2 -0.0395371 -0.0495678 0.0160428 0.0654028 
399 1 0.0176844 0.0742421 -0.0423697 0.0872916 
4265 2 -0.0462629 0.0331044 0.186444 0.194929 
527 1 -0.0252803 0.0672379 -0.000201572 0.0718336 
200 1 0.0470515 0.0622513 0.100288 0.12707 
1951 1 0.0691089 0.0778594 0.00303575 0.104151 
644 1 0.038523 -0.0421878 -0.00545657 0.05739 
193 1 -0.0233899 0.011114 0.0361007 0.0444283 
550 1 0.0919347 -0.0470391 0.0422193 0.111567 
69 1 0.074461 -0.0547449 0.00806927 0.0927716 
842 1 0.0689718 -0.00366738 -0.0253729 0.0735822 
578 1 0.0615409 -0.0833791 -0.0333992 0.10888 
172 1 0.00336077 -0.0224331 0.0932923 0.0960103 
381 1 -0.0245225 -0.0232939 0.0589266 0.0679434 
3524 2 2.95511e-05 0.0717117 0.0770433 0.105253 
688 1 -0.0254517 0.162434 0.0550844 0.173398 
3651 2 0.000685716 0.0131475 0.0975839 0.098468 
2367 1 0.0705175 0.0902399 -0.0958713 0.149356 
1244 1 -0.138418 0.0156073 -0.000561678 0.139297 
796 1 0.0336777 0.139067 -0.05303 0.152597 
691 1 -0.0137541 0.0347444 -0.152103 0.156626 
421 1 0.0291998 0.071725 -0.0174481 0.0793822 
597 1 0.061023 0.00399608 0.0661424 0.090081 
3617 2 0.153166 0.0280394 -0.0635571 0.168183 
120 1 0.0336153 0.229362 0.100449 0.25264 
769 1 -0.0677455 -0.0864757 0.0268505 0.113086 
2142 1 0.0396297 0.0509196 -0.0182316 0.06705 
3611 2 0.0533669 -0.0153521 0.172915 0.181613 
1915 1 0.019999 0.123771 0.0814536 0.149513 
2140 1 0.0980268 -0.0535719 0.0317703 0.11614 
3828 2 0.0203384 0.116293 0.107398 0.1596 
3204 1 -0.0465673 0.0453744 0.0903171 0.111286 
175 1 0.109492 -0.0774789 -0.0532431 0.144313 
2011 1 0.22586 0.101423 0.0914764 0.263946 
75 1 -0.0940498 0.102242 -0.0586084 0.150777 
547 1 -0.0208345 0.000477225 -0.158826 0.160187 
4316 2 -0.106974 0.0943963 -0.0550187 0.152909 
559 1 0.0266222 0.0986432 -0.0522193 0.114744 
717 1 0.00640502 0.0954071 -0.139101 0.168798 
242 1 0.00042933 -0.0194694 0.183606 0.184636 
3510 2 -0.153105 -0.000706509 0.220664 0.268579 
130 1 0.0808877 0.00784129 0.0215377 0.0840725 
143 1 -0.00342483 0.0781793 -0.00100941 0.0782608 
202 1 -0.129577 -0.122134 0.0146444 0.178666 
182 1 -0.109408 0.0561404 0.0961129 0.156076 
84 1 0.0197233 0.0210738 -0.0355368 0.0457818 
3633 2 -0.0990938 -0.0322504 -0.0745971 0.128158 
35 1 -0.150314 0.0159892 0.151884 0.214287 
3612 2 0.013993 0.0161327 0.0269373 0.0343757 
40 1 0.0438317 0.0767998 0.0403981 0.0972185 
4005 2 0.113296 -0.114964 0.11391 0.197555 
718 1 -0.0999944 0.0127002 -0.0373707 0.107502 
134 1 0.051897 0.0325919 0.0738958 0.0960006 
511 1 -0.178398 -0.0325485 0.0343391 0.184565 
757 1 -0.0315955 0.175098 0.0166564 0.178704 
3555 2 -0.0209443 0.09831 0.0914165 0.135869 
3481 2 0.0180377 -0.0511672 -0.0803689 0.096967 
135 1 -0.0778979 -0.011729 -0.0211849 0.0815748 
369 1 0.054872 -0.024153 -0.0114889 0.0610434 
2148 1 0.00489805 -0.0863908 0.0264195 0.0904729 
3462 2 -0.00811378 -0.101902 -0.15094 0.182298 
1914 1 -0.0555496 -0.0824863 -0.111245 0.149215 
3661 2 0.0609581 -0.120365 -0.0372413 0.139966 
1871 1 -0.00277764 0.0474645 -0.00516678 0.0478256 
320 1 -0.108071 -0.120044 -0.0581474 0.171671 
582 1 -0.07431 -0.127842 0.035528 0.152078 
766 1 0.0184991 0.040148 -0.089321 0.099661 
3552 2 0.079639 0.032603 -0.0530949 0.101116 
2290 1 0.0472147 0.102184 0.00396422 0.112634 
1794 1 -0.0803223 0.16309 0.017761 0.182662 
753 1 -0.0255502 -0.0512865 0.0150916 0.0592526 
396 1 0.081286 -0.00778523 0.15143 0.172044 
496 1 0.0148543 -0.0708315 -0.0712466 0.101557 
480 1 -0.0248785 -0.0860365 0.119073 0.148995 
253 1 0.118799 0.0102504 -0.0754451 0.141104 
4033 2 0.04651 -0.0532982 -0.0536091 0.0887571 
347 1 -0.073403 -0.0663202 -0.0862694 0.131258 
586 1 -0.0609965 0.0207914 -0.0575917 0.0864272 
3671 2 -0.0747178 -0.000240812 -0.0559343 0.0933351 
37 1 0.113483 -0.17226 -0.0992939 0.228935 
782 1 0.0689125 -0.0861648 -0.0338535 0.11541 
481 1 0.112889 -0.0487718 -0.0336816 0.127503 
392 1 -0.0385857 -0.0505133 -0.0680962 0.0931533 
333 1 0.0020875 -0.0730853 -0.0476227 0.0872567 
342 1 0.0173503 -0.0578796 -0.0962359 0.113633 
1179 1 0.0571131 -0.0870553 -0.101304 0.145268 
517 1 0.0550933 -0.0770901 -0.0341309 0.100713 
1824 1 0.0472821 -0.00571194 -0.0404222 0.0624674 
34 1 0.185656 -0.0525137 0.0684896 0.204736 
398 1 0.00155094 0.00683694 -0.0424438 0.0430189 
170 1 -0.0180423 -0.0365048 -0.0114959 0.0423118 
235 1 0.00306255 -0.0411292 0.0137276 0.0434676 
3852 2 -0.0666131 -0.0289342 -0.0129111 0.0737644 
816 1 0.0436703 -0.0634006 -0.139604 0.159424 
3931 2 -0.196501 -0.0751505 0.0512444 0.216533 
274 1 -0.00701526 -0.0636647 -0.0852823 0.106656 
30 1 -2.12177e-05 -0.0791346 -0.0155591 0.0806496 
2066 1 0.0816493 -0.0218974 0.160237 0.181168 
1082 1 -0.0286167 -0.106997 0.190516 0.220372 
1372 1 0.0106651 -0.0184707 0.0829647 0.0856624 
1265 1 0.0279678 -0.0100801 0.00597134 0.0303227 
601 1 -0.0235093 0.0313117 0.0159373 0.0422742 
540 1 -0.115975 -0.149331 -0.00578203 0.189165 
589 1 -0.0115709 0.0384633 0.181214 0.185612 
958 1 0.0901388 -0.0163289 0.10753 0.14126 
504 1 -0.0519327 0.0784851 -0.0122088 0.0948998 
1349 1 -0.186705 -0.0376267 0.0231759 0.191864 
9 1 -0.00283465 -0.116544 -0.0386866 0.12283 
149 1 -0.0522165 0.00356919 0.0130358 0.0539373 
163 1 -0.0216483 -0.276249 0.101403 0.295067 
4247 2 0.0676525 -0.128483 -0.15264 0.210675 
1175 1 0.0295473 -0.110534 0.0296947 0.118206 
3570 2 -0.0194586 -0.131393 -0.0831291 0.156695 
237 1 -0.0295583 0.0487282 0.0921225 0.108327 
490 1 0.0704977 -0.142309 0.0987097 0.18699 
50 1 0.0885003 0.012648 0.0706336 0.113936 
152 1 0.0930995 -0.0213704 -0.255455 0.27273 
3652 2 -0.0773224 -0.0768914 -0.037991 0.115474 
3823 2 0.0670806 0.03145 -0.172235 0.187493 
902 1 -0.0527151 0.0264217 0.072577 0.0935115 
3574 2 0.0315163 0.000304704 0.0179121 0.0362521 
770 1 -0.00986506 0.0106081 -0.0978699 0.0989362 
154 1 -0.0417853 -0.0722995 -0.0216084 0.0862563 
116 1 0.0929879 -0.0421085 0.155913 0.186356 
710 1 -0.0516068 -0.137787 -0.0373364 0.151798 
1956 1 -0.0687144 -0.039958 0.0363311 0.0873971 
1810 1 -0.113449 0.0118058 -0.0193031 0.115683 
2072 1 -0.0333169 -0.00657367 -0.08117 0.0879875 
1649 1 -0.0646613 -0.0284207 -0.108739 0.129665 
186 1 -0.141901 0.0449768 0.0420186 0.154675 
1063 1 -0.255034 0.205356 -0.160948 0.364853 
432 1 -0.109517 0.0762791 -0.0338872 0.137698 
2495 1 -0.0737589 -0.16215 -0.0138078 0.178672 
3896 2 -0.0572362 0.0220987 -0.0958748 0.113826 
1071 1 -0.0520952 -0.0153123 0.057314 0.0789511 
913 1 0.0383079 0.0425409 0.00120679 0.0572598 
1068 1 -0.119275 0.0746478 -0.11733 0.183208 
265 1 -0.0817854 -0.0417155 -0.104764 0.1393 
1287 1 0.0229543 0.0184567 0.0375347 0.0477117 
3799 2 0.150803 -0.114409 -0.115846 0.221926 
554 1 0.172581 -0.0610921 0.0184184 0.183999 
1414 1 -0.0241968 0.0449816 -0.0506972 0.0719655 
213 1 -0.00779663 0.0283154 0.054193 0.0616395 
341 1 -0.0804536 -0.00606885 0.0439183 0.0918609 
3682 2 0.0354531 0.0966182 -0.0357662 0.108955 
754 1 -0.0150872 0.0287176 0.0308559 0.0447706 
112 1 -0.0246434 0.0774423 -0.00457039 0.0813972 
1041 1 -0.00130541 0.00914725 -0.0543045 0.0550849 
119 1 0.0596861 0.0841718 -0.0654035 0.122168 
3998 2 0.0899883 -0.0561116 0.159148 0.191245 
995 1 -0.0392 -0.0232561 -0.0429348 0.062617 
4128 2 0.0375871 -0.0588368 0.233964 0.244159 
8 1 0.0236832 0.0463761 -0.00810836 0.0527009 
94 1 0.0373307 0.0857113 -0.0381049 0.100955 
48 1 0.083105 -0.0226945 0.128772 0.154931 
437 1 0.0719765 -0.0316257 -0.0052019 0.07879 
3866 2 0.0460072 0.0228006 -0.0286275 0.0587883 
2206 1 0.0397991 0.030014 -0.0638255 0.0809845 
3490 2 -0.000288437 0.0171851 -0.137624 0.138693 
3072 1 0.0150071 -0.123014 0.0400762 0.130245 
3002 1 0.173887 0.0513993 -0.0320709 0.184139 
92 1 0.030986 0.0567021 0.0458893 0.0792533 
335 1 0.0619245 0.0284139 -0.0426933 0.0804034 
3815 2 -0.00411297 0.0709168 -0.0162342 0.0728674 
1186 1 -0.0415333 -0.0294303 -0.0105868 0.0519926 
1114 1 0.088827 -0.0847481 0.0344226 0.127504 
1821 1 -0.120203 -0.0634603 -0.027068 0.138595 
1922 1 -0.00213842 -0.0796717 0.0506307 0.0944226 
451 1 -0.10482 -0.0482462 -0.0052435 0.115509 
3960 2 -0.0361767 -0.0442798 0.0813271 0.099416 
100 1 -0.0806882 -0.08572 -0.00487257 0.117823 
1180 1 0.0591286 -0.025199 -0.0994808 0.118438 
165 1 0.0588466 0.00657415 -0.0469927 0.0755941 
388 1 -0.0414556 -0.00601163 -0.118055 0.125267 
3742 2 -0.0483109 -0.0654353 0.0322328 0.087491 
323 1 -0.0874914 0.0574167 0.0696201 0.125692 
288 1 -0.124356 0.0345179 -0.0486905 0.137937 
3942 2 -0.0916161 0.125003 0.106265 0.187914 
66 1 0.0308837 0.0742791 0.122817 0.146817 
340 1 0.130778 0.082737 -0.0394951 0.159713 
138 1 -0.0267301 0.0228857 0.0869397 0.093791 
879 1 -0.0970277 0.0368293 -0.0447992 0.113039 
3808 2 0.0756941 0.188102 -0.071241 0.214912 
834 1 0.138967 0.0393791 0.00789089 0.144654 
18 1 -0.025179 -0.0697768 -0.144574 0.162494 
3679 2 0.158017 -0.0908315 -0.1175 0.216854 
52 1 0.0119545 -0.201817 0.0368827 0.205507 
407 1 -0.00891359 0.128304 -0.0954536 0.160165 
360 1 0.0510856 0.0177481 -0.0407679 0.0677256 
2885 1 -0.0876366 -0.0151536 0.0191968 0.0909853 
3526 2 -0.085723 -0.248135 -0.0111785 0.262763 
310 1 -0.0992861 -0.0351535 -0.0747441 0.129152 
326 1 0.0565072 -0.0465762 0.0705588 0.10169 
227 1 -0.052979 -0.0893091 -0.0926007 0.139132 
2068 1 -0.0150534 0.0207264 -0.179615 0.181433 
456 1 0.125487 -0.0139774 0.0714636 0.145084 
279 1 0.105643 0.0584489 0.176336 0.213708 
305 1 -0.0217717 -0.00733878 0.086226 0.0892345 
49 1 0.023184 -0.02602 -0.0159134 0.0383116 
3512 2 0.0668429 -0.218369 -0.00258498 0.228385 
11 1 -0.0602569 -0.139744 -0.0412362 0.157669 
189 1 -0.172444 0.0445198 -0.0721345 0.192152 
2271 1 -0.0522457 -0.119375 -0.115588 0.174186 
319 1 -0.201525 -0.0666926 0.0368677 0.215452 
3566 2 0.0878731 -0.00335245 -0.0422237 0.0975488 
71 1 0.0169 0.00365784 0.0242295 0.0297667 
1560 1 -0.100576 0.0727285 0.0679866 0.141517 
190 1 -0.0765576 -0.029317 0.138272 0.160748 
123 1 0.0460023 -0.0051024 0.077619 0.0903712 
27 1 0.00849124 -0.0503043 0.0772188 0.0925493 
162 1 -0.0266651 0.0584677 -0.0118849 0.065351 
255 1 -0.153415 -0.0412908 0.0215302 0.160327 
304 1 0.000903266 0.024811 -0.102144 0.105118 
321 1 0.0217729 -0.0397402 0.131067 0.138679 
682 1 -0.076551 0.00487758 -0.0191614 0.0790633 
3469 2 0.0232047 0.0041475 -0.0965892 0.099424 
3539 2 -0.00749574 -0.0028986 0.0894281 0.0897885 
128 1 -0.0172313 -0.0624831 -0.0940821 0.114247 
3562 2 0.106894 0.00482668 0.0836032 0.135791 
560 1 -0.204209 -0.0726966 -0.0722536 0.228488 
212 1 0.0631616 0.0104839 -0.0501109 0.0813044 
355 1 0.0355114 0.0438869 0.0695682 0.0895927 
156 1 0.0251965 0.0520081 0.0561124 0.08055 
3620 2 0.116074 -0.0392108 0.0040031 0.122583 
1823 1 0.150635 -0.194127 -0.0746011 0.256791 
1805 1 -0.129432 -0.0142498 0.139271 0.190662 
2599 1 -0.0790134 0.0641118 0.0928799 0.137768 
327 1 0.123877 0.0920008 0.067521 0.16843 
137 1 0.0724004 0.0237224 -0.0320011 0.0826356 
2334 1 0.0173091 0.00199338 0.0108068 0.0205028 
3698 2 -0.0120035 0.00233232 -0.0754745 0.0764587 
555 1 -0.0304353 -0.0162549 -0.0316211 0.046802 
4178 2 0.0132903 0.00808106 -0.0296045 0.0334419 
290 1 0.0530116 -0.0208905 -0.109024 0.123016 
284 1 -0.00219739 0.0777346 0.0383392 0.0867029 
3543 2 -0.0346505 -0.110317 -0.00645314 0.11581 
366 1 0.0185235 -0.00664174 0.147547 0.148854 
55 1 0.0452387 0.0334044 0.040176 0.0691123 
273 1 0.00331742 0.0352038 -0.117133 0.122353 
3468 2 0.0615196 0.0132795 0.180646 0.191295 
316 1 0.132505 0.0369752 0.169911 0.218619 
81 1 -0.0395672 -0.0272886 -0.00204109 0.0481081 
322 1 0.0439365 -0.0184006 0.0510978 0.0698569 
239 1 0.0721371 0.00705945 -0.0334343 0.0798214 
734 1 -0.020463 -0.114702 -0.0244779 0.119056 
384 1 -0.0384984 -0.0995715 -0.0961413 0.143665 
3476 2 0.0538263 0.0863264 0.0214583 0.103971 
311 1 0.0149669 -0.103405 -0.0169669 0.105851 
3471 2 0.053737 0.0134512 0.061836 0.0830198 
1938 1 0.0575008 -0.0140026 0.00032971 0.0591821 
139 1 0.0970769 0.0932348 -0.076204 0.154673 
727 1 0.098136 -0.169542 -0.0966263 0.21843 
1885 1 0.0538505 0.079991 0.0581789 0.11262 
2184 1 0.20689 0.0225267 -0.0279476 0.209981 
2494 1 -0.163756 0.0218403 -0.0914163 0.188812 
2091 1 0.011022 -0.00531336 -0.0334766 0.0356426 
281 1 0.0335822 0.113535 0.168216 0.205705 
863 1 -0.0528015 0.0973978 0.0115747 0.111393 
176 1 -0.0699103 0.0463045 -0.10352 0.133221 
3710 2 0.024548 0.0419902 -0.0619948 0.078798 
3572 2 -0.0639524 -0.0630629 -0.0952529 0.13092 
4197 2 0.058365 0.0142895 -0.156736 0.16786 
343 1 -0.0340305 -0.00726579 -0.0874451 0.0941144 
282 1 0.023282 0.0027598 -0.0780463 0.0814917 
1038 1 0.0338469 0.0213941 0.0834164 0.092529 
408 1 0.116462 -0.0588216 0.0455213 0.138187 
412 1 0.0949937 0.013532 0.0892278 0.131029 
820 1 0.0710587 0.0786925 0.151481 0.184901 
585 1 -0.0213626 -0.04666 -0.0612469 0.0799044 
3609 2 0.0180684 -0.138919 0.0721169 0.157562 
719 1 0.0123016 -0.0555762 -0.00409763 0.0570687 
608 1 0.103382 0.12076 0.110317 0.193496 
106 1 -0.0158364 0.0629729 -0.00506396 0.0651308 
1047 1 -0.0690402 -0.0681727 -0.0466083 0.10764 
3573 2 0.0864185 0.0600578 -0.0575244 0.119934 
751 1 -0.00362572 -0.0826529 -0.0604512 0.102465 
259 1 0.02661 0.00875181 -0.0515899 0.0587044 
245 1 -0.0428733 0.0348408 -0.00501861 0.0554724 
613 1 0.00154454 -0.132526 0.0569991 0.144272 
4296 2 -0.0360047 0.0402608 -0.00653854 0.0544061 
272 1 -0.109072 -0.143113 -0.0525465 0.187454 
4239 2 -0.191336 -0.0682913 -0.0665677 0.213786 
88 1 0.0288406 0.097162 0.0678756 0.121981 
4 1 0.0773232 -0.0393867 -0.02577 0.0905223 
361 1 0.147239 0.0374453 -0.122506 0.195164 
358 1 -0.0386634 0.0800386 0.102741 0.135856 
194 1 0.0040584 -0.00730297 -0.0766276 0.0770817 
2373 1 0.0504354 -0.00989983 -0.0593947 0.078546 
1982 1 0.0755346 -0.000255411 0.0973206 0.123194 
3953 2 0.0493471 0.0705513 0.0750613 0.114223 
414 1 0.0296413 0.0623097 -0.187506 0.199799 
3186 1 0.047156 -0.0127934 -0.0469906 0.0677899 
177 1 0.0821753 0.0225354 -0.00291901 0.0852592 
1962 1 -0.0331724 0.14509 0.131973 0.198918 
706 1 0.0175753 0.0678223 0.00578587 0.070301 
1544 1 0.0202721 -0.165466 0.0293466 0.169267 
4160 2 0.00153317 0.0798577 0.0254962 0.0838431 
19 1 -0.0621436 0.115225 -0.0478271 0.139378 
3624 2 -0.0705047 0.0380559 -0.0572386 0.0984653 
115 1 0.030961 0.0268026 -0.150703 0.156168 
1102 1 -0.067005 0.00441583 0.0717332 0.098259 
2048 1 0.120227 0.0543063 0.0571693 0.143777 
649 1 0.0240901 0.0567596 -0.00491129 0.0618555 
113 1 0.00319518 -0.117838 0.0289225 0.121378 
1150 1 0.0311214 -0.0125933 -0.0103901 0.0351438 
620 1 0.0249324 -0.0973802 0.0527642 0.113528 
739 1 0.0488514 -0.0134364 -0.165839 0.173405 
2412 1 -0.0578747 -0.0103624 0.0178025 0.0614312 
3746 2 0.0835807 0.000454451 -0.222253 0.23745 
1225 1 -0.0104963 -0.0221392 0.196108 0.197632 
241 1 0.130115 -0.0676349 -0.0129239 0.147212 
83 1 0.0568858 -0.0596883 -0.0039788 0.0825501 
1006 1 0.0709126 0.0187572 -0.0237127 0.0770891 
4046 2 -0.0717485 -0.0669933 -0.0579212 0.113977 
96 1 -0.063457 -0.164195 0.0797634 0.193259 
411 1 0.142336 0.0788444 0.0280879 0.165121 
2454 1 -0.00871586 -0.0383608 0.0577808 0.0699009 
404 1 0.0536336 0.0489452 0.0227191 0.0760812 
226 1 0.0431091 -0.0342331 0.0243272 0.060184 
534 1 0.0468325 -0.0450746 0.136282 0.15099 
3538 2 -0.0928623 0.0361691 -0.0374878 0.106475 
761 1 0.0420344 -0.0358058 0.040425 0.0684334 
246 1 0.0634948 0.0469019 -0.0473696 0.0920611 
2229 1 -0.136467 -0.0801999 -0.0778244 0.176386 
146 1 0.0448919 -0.170851 -0.0832643 0.19529 
3608 2 -0.0862806 -0.0276072 0.0508273 0.103874 
503 1 0.101984 -0.0550002 -0.0451971 0.124372 
505 1 0.118383 -0.118769 0.0214622 0.16906 
1430 1 -0.0280387 -0.0894184 -0.0791336 0.122654 
97 1 -0.175799 0.0744209 -0.0491766 0.197135 
1723 1 -0.0153838 -0.0537472 -0.0845779 0.101385 
3561 2 -0.000917242 0.191271 -0.0471926 0.197009 
20 1 -0.0612327 0.0193867 0.0137545 0.0656847 
263 1 -0.0602196 0.164463 -0.0161889 0.175888 
817 1 0.0832144 -0.0907938 0.0415706 0.129986 
1034 1 -0.0713571 0.0569626 0.0054377 0.0914666 
353 1 -0.00651235 -0.11091 0.155873 0.191415 
1260 1 0.0268605 0.110741 -0.0857339 0.142602 
998 1 0.0210129 0.102321 -0.0603287 0.120626 
1932 1 0.0912397 -0.106413 -0.0691749 0.156312 
36 1 0.0418673 -0.177005 -0.0999666 0.20755 
38 1 0.0311304 0.0635778 -0.0745279 0.102789 
3130 1 0.0423756 0.035037 -0.0268703 0.0611988 
1973 1 0.1163 0.129706 0.111641 0.206913 
307 1 0.110101 -0.0414706 0.0583461 0.131325 
2714 1 0.0854418 0.0219074 -0.0419386 0.0976682 
28 1 0.0176881 0.0917138 -0.00271692 0.0934434 
1937 1 0.0122558 0.0880448 -0.0636307 0.10932 
562 1 -0.0684724 -0.12869 -0.0459899 0.152855 
3011 1 0.030123 0.0319976 0.00393913 0.0441221 
410 1 0.0604564 -0.169233 0.0513314 0.186895 
693 1 0.12348 0.0579809 0.149366 0.202285 
367 1 0.00863376 0.0106331 -0.0163633 0.0213392 
318 1 0.0735743 0.0372181 -0.171894 0.190646 
735 1 0.164745 0.0167382 0.0397967 0.170308 
600 1 0.0323059 -0.00327947 0.0586446 0.0670344 
3590 2 0.0937318 0.130803 0.0987517 0.188804 
3636 2 0.0444498 -0.0683157 -0.0292027 0.0865773 
26 1 -0.117553 -0.0047263 0.106898 0.158959 
1199 1 0.0774158 0.100371 -0.061217 0.140766 
614 1 -0.00603536 0.120265 -0.119706 0.169793 
459 1 -0.128351 -0.0175147 -0.0227694 0.131526 
3645 2 0.0716177 0.107084 0.0431142 0.135849 
574 1 0.0566003 -0.0637368 0.141929 0.165559 
780 1 0.134127 0.0367048 0.0109201 0.139487 
161 1 -0.0828706 -0.0250726 0.195871 0.214153 
309 1 0.0961955 0.0559195 -0.0181513 0.112739 
365 1 0.0834204 -0.110966 0.0697538 0.155364 
191 1 -0.0752459 0.0642251 -0.0160386 0.10022 
1766 1 -0.0621529 -0.0645958 0.00477929 0.0897688 
2775 1 0.101725 -0.0974608 0.0243095 0.14296 
1030 1 0.0481264 -0.179153 0.0416497 0.190122 
1505 1 0.156898 0.158198 0.164456 0.276928 
3872 2 -0.0521351 0.0458906 -0.0508977 0.086108 
580 1 -0.00960176 -0.038531 0.0240404 0.0464195 
2054 1 0.00946928 -0.0954063 0.00108197 0.0958812 
2064 1 0.0220933 0.0299912 0.0491827 0.061697 
529 1 0.0266229 0.00106931 -0.0463103 0.0534282 
402 1 -0.0474501 0.0679213 -0.0201312 0.0852647 
124 1 -0.132625 -0.0190195 0.0217587 0.135737 
744 1 0.112844 -0.0273521 0.0658322 0.133476 
185 1 0.0534818 -0.0629329 0.101151 0.130585 
315 1 0.0705694 -0.0285087 0.00685587 0.0764185 
655 1 0.00515187 -0.0959368 0.185692 0.209074 
765 1 0.0673934 -0.0352241 0.0534038 0.0929224 
140 1 -0.043085 0.00517122 -0.147011 0.153282 
59 1 0.0905462 -0.0779957 0.0868467 0.14773 
54 1 0.068956 0.0826232 0.04411 0.116307 
3506 2 -0.0175173 0.0994605 -0.125815 0.161334 
666 1 0.0681859 -0.233728 0.114605 0.269095 
43 1 0.0729275 0.0480577 0.152692 0.175905 
334 1 -0.127565 -0.0774237 0.109166 0.184891 
267 1 0.107155 0.0898778 -0.180085 0.228015 
99 1 0.0976934 0.112979 0.0952975 0.177172 
1189 1 -0.127869 0.0201661 -0.172779 0.215893 
201 1 -0.0417925 0.0157475 -0.0269594 0.0521671 
380 1 -0.00957341 0.0905514 -0.0899604 0.128 
1777 1 -0.0371368 -0.0137681 -0.0672699 0.0780638 
2597 1 0.157414 0.0396214 0.0724327 0.177751 
2484 1 0.179559 -0.0430438 0.0669138 0.196396 
308 1 0.0442552 -0.0194946 -0.079607 0.0931442 
3918 2 0.0133188 0.191243 0.103013 0.21763 
89 1 -0.112916 0.0205566 0.0334905 0.119559 
300 1 -0.0644055 -0.02336 0.0368636 0.077799 
3582 2 0.0824464 -0.0429801 -0.0896109 0.129131 
712 1 0.0267105 0.140512 -0.10269 0.176075 
3836 2 -0.0481319 0.123796 -0.0780761 0.154072 
268 1 -0.0347488 0.0230972 0.0937362 0.102603 
788 1 0.0091241 0.0961784 -0.039167 0.104248 
4091 2 -0.0462611 0.105736 -0.0146868 0.116344 
371 1 0.0127078 -0.0410954 0.100015 0.108873 
3505 2 0.143459 0.011856 -0.0150625 0.144734 
266 1 0.106952 -0.0107558 -0.104524 0.149932 
3571 2 -0.0162734 -0.0754142 0.0779354 0.109663 
637 1 -0.0455171 -0.0105742 -0.0778844 0.0908273 
157 1 -0.0785053 -0.052367 0.0134226 0.0953181 
257 1 -0.0565589 0.0102648 0.0665444 0.0879342 
571 1 0.0247877 0.0175436 0.0756486 0.0815163 
665 1 -0.127227 -0.0715775 0.102574 0.178414 
448 1 -0.198335 -0.157526 -0.00445207 0.25332 
827 1 0.0609943 0.0430524 0.0559865 0.0933183 
3475 2 0.0669147 0.002509 0.0351404 0.0756222 
73 1 -0.0354446 0.0704121 -0.0453662 0.090952 
373 1 0.0946713 0.0110325 0.0350974 0.101569 
247 1 0.0312949 0.0150956 -0.0842016 0.0910887 
107 1 0.0637757 0.0821905 -0.0706156 0.125735 
675 1 -0.0854352 -0.000656353 -0.126757 0.152863 
434 1 0.108657 0.0664094 -0.0691184 0.144893 
159 1 -0.042808 0.0806244 -0.0854071 0.125009 
32 1 0.0461206 0.141079 -0.0477922 0.155931 
3579 2 0.100788 0.0266961 -0.18765 0.214671 
394 1 -0.0368389 0.00662236 0.0814895 0.0896744 
260 1 0.0577137 -0.00344037 0.0682229 0.0894263 
3972 2 -0.0493614 0.0564081 0.0753492 0.106282 
1801 1 -0.0443697 0.0616702 -0.00865567 0.0764644 
2122 1 0.0520186 0.0513883 0.202785 0.215566 
1966 1 0.0802489 -0.0334063 -0.0453812 0.0980578 
291 1 -0.0188946 -0.00946647 0.074638 0.0775722 
2047 1 0.0805576 0.0350161 -0.0374189 0.0954769 
1899 1 0.0611217 0.0727279 0.000512191 0.0950025 
622 1 0.0310442 0.207311 -0.0281532 0.211505 
1993 1 0.0191342 -0.0072192 0.0379307 0.0430926 
62 1 -0.00553402 0.00940001 0.0542948 0.0553797 
2187 1 -0.0593045 0.0642042 -0.0960666 0.129877 
4318 2 0.0969164 0.0292698 0.0769607 0.127171 
44 1 0.0669007 0.0671732 0.0840049 0.126668 
824 1 0.00766073 -0.0237855 0.0895072 0.0929299 
1282 1 0.0554686 0.0381797 0.0750718 0.100848 
3626 2 0.162984 0.102044 -0.077343 0.207265 
819 1 0.0941319 0.131744 0.0368151 0.16605 
773 1 -0.115081 -0.154797 0.069513 0.205031 
270 1 -0.0556754 -0.0532982 -0.0524046 0.0932024 
14 1 -0.165504 -0.063204 0.0199236 0.178279 
3540 2 0.0538753 -0.162476 0.0600773 0.181412 
997 1 0.0462069 0.0990223 -0.128703 0.168834 
4275 2 -0.0334197 -0.0958204 -0.221356 0.24351 
164 1 -0.0028632 -0.0012829 0.0771884 0.0772521 
234 1 -0.00856984 -0.0070924 0.0264334 0.0286787 
1125 1 -0.00791734 -0.0791412 -0.0853524 0.116666 
3985 2 0.0496826 0.0545581 0.0520992 0.0903287 
328 1 0.0183495 0.0143395 -0.0178979 0.0293711 
3474 2 0.0859215 0.00465792 -0.0569754 0.103201 
543 1 0.00524697 -0.0459276 0.00450144 0.046445 
293 1 0.0734929 -0.0876686 0.124762 0.169271 
3458 2 0.129508 0.00170211 0.102713 0.165303 
390 1 -0.0303175 0.00179095 -0.135598 0.138958 
3706 2 0.0565087 -0.222597 -0.208477 0.31017 
2169 1 0.107849 0.0351355 -0.103732 0.153708 
1786 1 0.0991968 -0.0384198 0.0313406 0.110898 
1478 1 -0.0453334 0.00888645 0.0404724 0.0614174 
87 1 0.018128 -0.0150986 -0.0285518 0.0370378 
4090 2 -0.102739 -0.0444497 0.0123026 0.112616 
142 1 0.0261014 0.0233327 0.00514089 0.0353854 
1650 1 -0.0788964 -0.121601 0.00575043 0.145067 
153 1 0.115785 -0.0599739 0.0111941 0.130875 
374 1 0.0134152 -0.0894982 -0.134872 0.162421 
602 1 0.00774014 0.00307651 -0.145944 0.146182 
1277 1 -0.0354805 0.041147 0.0216894 0.058501 
76 1 0.0514525 0.0191654 0.201094 0.208455 
1370 1 0.0395272 -0.0430994 0.0549672 0.0802581 
221 1 -0.0608154 0.0315388 -0.0553475 0.0880713 
604 1 -0.0862659 0.00347504 0.0734306 0.11334 
1161 1 0.0256233 -0.0549476 0.111433 0.126859 
1718 1 -0.0201204 0.0240213 -0.0739912 0.0803526 
178 1 -0.105758 -0.288011 -0.00973168 0.306969 
295 1 -0.174969 -0.101373 -0.0032681 0.202241 
1472 1 -0.0607234 -0.0339614 -0.0656349 0.0956485 
4159 2 -0.00419385 -0.0577134 -0.0149574 0.0597674 
3467 2 0.0478146 0.0447059 -0.0965219 0.116625 
3531 2 -0.0948142 -0.0602571 0.132519 0.173729 
2720 1 0.00765883 0.0141192 -0.0801082 0.0817027 
1851 1 -0.0138689 0.00394353 -0.00325934 0.0147825 
732 1 0.0276718 -0.100392 0.00932853 0.104553 
446 1 -0.308178 0.0846263 0.105238 0.336467 
3878 2 0.0575474 0.135098 -0.0414268 0.152575 
3185 1 -0.138112 -0.00762127 -0.033993 0.142438 
110 1 -0.125867 0.00445311 -0.00983508 0.126329 
2963 1 -0.004953 0.0774489 -0.0219034 0.0806388 
2608 1 0.0130919 -0.00926294 0.0458312 0.0485561 
3301 1 0.0168132 0.0363505 0.142505 0.148026 
3759 2 -0.0518298 -0.032408 -0.0278772 0.0671844 
4171 2 -0.11589 0.0188905 0.111054 0.161618 
2118 1 -0.0239841 0.0119391 -0.0949119 0.0986208 
1742 1 0.0203561 -0.00284494 0.0301985 0.0365297 
642 1 0.0587974 -0.261759 -0.0192364 0.26897 
3366 1 -0.0548398 -0.00379505 0.0441458 0.0705029 
144 1 0.0848469 0.0492702 -0.0634041 0.116819 
681 1 -0.0209807 0.00725203 -0.0343747 0.0409194 
1666 1 -0.00308367 -0.0454523 -0.0696249 0.0832049 
183 1 -0.0671385 -0.104058 -0.0465503 0.132297 
694 1 -0.0869901 0.0405177 0.0741399 0.121267 
444 1 -0.0643008 0.0180028 -0.122023 0.139098 
869 1 -0.0270507 -0.134269 0.130259 0.189017 
920 1 -0.0928599 -0.162839 0.125467 0.225569 
53 1 0.116421 0.0178805 0.0418065 0.124985 
1450 1 -0.297828 0.00711576 -0.0800182 0.308472 
1579 1 -0.00968507 -0.0456691 0.0256752 0.0532793 
51 1 0.0726138 -0.0810626 -0.0088881 0.109192 
4187 2 -0.0362769 -0.0659417 -0.140378 0.159281 
1694 1 0.0308367 -0.0570056 0.259403 0.267377 
1590 1 0.0548542 0.00117096 -0.027493 0.0613695 
2005 1 0.113645 -0.142759 0.135491 0.227273 
736 1 -0.151061 0.0211533 -0.0426478 0.158384 
363 1 0.155577 0.0170607 0.0124202 0.157001 
230 1 -0.048399 -0.0212906 0.156029 0.164745 
2538 1 0.0962364 -0.117309 -0.0447021 0.15818 
357 1 -0.0388521 0.0211264 -0.0589242 0.0736741 
3849 2 0.194396 -0.0752193 -0.179663 0.275185 
4102 2 0.0539176 -0.143738 0.0541248 0.16278 
1032 1 0.0889351 0.0660425 0.0821061 0.137886 
78 1 -0.000617181 0.0436561 -0.00440852 0.0438825 
564 1 0.286174 -0.0744363 0.0922009 0.309737 
797 1 0.147195 -0.0632105 0.0465261 0.166813 
1476 1 0.267416 0.0971881 0.0178406 0.285088 
872 1 -0.027437 0.0201445 0.0134385 0.0365949 
475 1 0.0691188 0.0212386 -0.0129136 0.0734524 
4119 2 0.278977 -0.141081 -0.0872918 0.32458 
576 1 -0.0566507 0.116411 0.0894698 0.157371 
507 1 0.0319648 -0.191375 0.0406769 0.198244 
248 1 0.0279207 -0.0706151 -0.0559484 0.0943201 
3597 2 -0.0465466 0.0312868 0.0555833 0.0789618 
539 1 -0.0378561 -0.0611048 0.00461838 0.0720292 
63 1 0.0605106 -0.0500848 0.145326 0.165196 
57 1 -0.048545 -0.138959 0.0362752 0.151598 
854 1 -0.0818345 -0.0364497 0.0239835 0.0927398 
668 1 0.0733802 -0.130933 -0.0550449 0.159869 
385 1 -0.0950426 -0.304144 0.151837 0.352975 
752 1 -0.0179903 0.0396593 -0.0420784 0.0605567 
3650 2 0.0315873 0.158027 -0.114068 0.197438 
3736 2 -0.0806598 -0.211163 0.0920273 0.244059 
254 1 -0.158912 -0.11665 -0.00957492 0.197363 
3637 2 -0.0368161 -0.0941431 -0.0514966 0.113447 
731 1 -0.0484945 -0.127091 0.0391476 0.14155 
2304 1 0.0806041 -0.173308 0.0448761 0.196333 
610 1 -0.217061 0.0296299 -0.117145 0.248428 
292 1 -0.135477 0.0300236 -0.0444816 0.145719 
313 1 -0.0642447 -0.00908001 0.00294838 0.0649502 
2133 1 -0.0447927 -0.0692611 -0.0492181 0.0960516 
646 1 -0.0830795 -0.0139686 -0.0962458 0.127908 
271 1 0.0308212 0.128349 0.0386853 0.13755 
584 1 -0.047848 0.129259 -0.0409486 0.143785 
3649 2 -0.0910138 -0.0414394 0.0779603 0.126801 
1148 1 -0.0311205 0.124612 0.14603 0.194477 
779 1 -0.135016 -0.0930175 0.0771568 0.181204 
621 1 -0.128451 0.082237 -0.0117087 0.15297 
16 1 -0.0290168 -0.0701592 0.0862786 0.114927 
3635 2 -0.106505 -0.251338 0.0954151 0.289168 
790 1 0.098228 0.00198481 0.135832 0.16764 
17 1 -0.0108499 -0.046986 0.106211 0.116645 