ITEM: TIMESTEP
12
ITEM: NUMBER OF ATOMS
4320
ITEM: BOX BOUNDS pp pp pp
0.0000000000000000e+00 1.9309999999999999e+01
0.0000000000000000e+00 1.9309999999999999e+01
0.0000000000000000e+00 9.6549999999999994e+00
ITEM: ATOMS id type c_displacement[1] c_displacement[2] c_displacement[3] c_displacement[4] 
427 1 0.029462 0.0312457 0.00582229 0.0433383 
3931 2 -0.00916352 -0.00691301 0.00607287 0.0129861 
257 1 0.0106439 -0.00758674 0.00557553 0.0142105 
959 1 0.0111724 0.0392056 -0.0136954 0.0430054 
1443 1 0.0023968 0.0247162 -0.0212566 0.0326876 
846 1 -0.017145 0.0216192 -0.0125434 0.0303097 
136 1 0.0466065 0.0184401 0.00898977 0.0509217 
3584 2 0.0123733 0.0303779 0.0247946 0.041118 
1419 1 0.0123358 -0.00893516 0.0145465 0.0210621 
787 1 0.00457282 0.0209675 -0.0529408 0.057125 
525 1 0.00513328 -0.00396683 -0.0222067 0.0231349 
4057 2 0.0147387 0.00618708 -0.00745383 0.0176372 
308 1 0.015919 -0.025286 -0.00627371 0.0305312 
1016 1 0.0185759 0.0160488 -0.0427305 0.0492801 
858 1 -0.00139881 -0.0151707 -0.0214897 0.0263423 
286 1 -0.0181883 -0.0126947 0.00405468 0.022548 
3677 2 0.0380891 -0.0185682 0.046058 0.0625851 
262 1 -0.0161602 -0.00404326 -0.00539713 0.0175108 
1399 1 0.023293 -0.0220484 0.0190709 0.0373148 
5 1 0.0025105 0.0214462 -0.00352815 0.021879 
731 1 0.0100576 -0.0222926 0.0159865 0.0292178 
1257 1 0.0039737 -0.0119122 -0.0281517 0.0308255 
4212 2 0.0210527 -0.0122217 -0.0132582 0.0277195 
338 1 0.010036 0.00323031 0.0302866 0.0320693 
1261 1 0.0244376 0.0292843 -0.00612613 0.0386302 
2166 1 0.0100293 -0.00577822 -0.00406268 0.012267 
235 1 -0.0322285 0.00294396 0.0102369 0.0339432 
127 1 -0.0124479 -0.0143064 -0.011182 0.022015 
561 1 -0.00434754 0.0104763 -0.0039944 0.0120253 
195 1 0.0249798 0.0204029 0.00858994 0.0333775 
3470 2 1.92262e-05 -0.0264495 0.0205552 0.0334976 
2080 1 0.0228102 -0.0164891 -0.0161329 0.0324418 
3509 2 -0.0146626 0.0110265 0.014755 0.0235432 
581 1 0.0242776 -0.0070669 0.0127354 0.0283113 
3984 2 -0.0189089 0.0321329 -0.00093568 0.0372954 
1036 1 -0.0049696 -0.0136219 -0.0421489 0.0445733 
103 1 0.00575726 0.00543255 0.0123302 0.0146524 
1412 1 -0.00132105 -0.0151102 0.00983059 0.018075 
160 1 0.0125004 0.000395489 0.00214503 0.0126892 
3627 2 -0.00281993 -0.000144946 0.0126423 0.0129538 
445 1 0.0336958 -0.0210588 -0.00949367 0.0408535 
433 1 0.0119493 0.0353588 -0.0112403 0.0389792 
462 1 0.0168746 -0.000210912 0.0011891 0.0169178 
1457 1 -0.00350686 -0.0088725 -0.0173076 0.0197629 
96 1 -0.00378146 -0.0462931 -0.0167446 0.0493734 
3864 2 0.020682 0.00948366 0.000285572 0.0227545 
294 1 0.00621066 0.0317624 0.0553051 0.0640787 
819 1 0.00908063 -0.0254996 -0.00335193 0.027275 
3663 2 0.029515 0.0344817 0.000735199 0.0453945 
1243 1 0.014205 0.0314853 -0.0164354 0.0382522 
66 1 -0.0206862 0.00628224 -0.015113 0.0263778 
2056 1 0.0127847 0.000772382 0.00444721 0.0135581 
1161 1 0.0117389 0.0205278 0.0348393 0.0421066 
836 1 -0.028255 -0.0362731 -0.00755639 0.0465959 
2046 1 -0.0124744 -0.0170947 0.00478414 0.0216963 
3695 2 0.0140126 0.0208011 -0.0319224 0.0405965 
280 1 0.0343037 -0.012546 -0.00667098 0.0371301 
4058 2 -0.00479328 0.00336819 -0.00702932 0.0091505 
849 1 -0.0261996 -0.0287451 0.0237688 0.0455813 
2059 1 0.0123421 0.0228457 0.01507 0.0300226 
124 1 0.00316295 -0.0276706 0.0063525 0.028566 
213 1 -0.001496 -0.00407638 -0.00291285 0.00522873 
4035 2 -0.000217857 -0.00904203 0.0123974 0.0153461 
164 1 -0.00398546 0.0263211 0.00372939 0.0268811 
424 1 -0.00161951 0.000607485 0.00286443 0.00334616 
215 1 0.0341836 -0.00166329 0.00159289 0.0342611 
4039 2 -0.00860274 0.0334682 -0.0223958 0.0411788 
86 1 0.00636253 -0.00672784 0.0131181 0.0160571 
57 1 -0.0454617 -0.00289689 -0.0090989 0.0464537 
295 1 -0.0129296 0.000972862 0.00382407 0.0135183 
503 1 -0.0143684 -0.0216502 -0.0489957 0.0554595 
3622 2 -0.00305488 -0.0098892 -0.0184037 0.0211145 
128 1 0.0241269 0.00411761 0.0163004 0.0294069 
339 1 -0.00290707 -0.00984735 -0.0276984 0.0295402 
467 1 0.0137702 -0.00205432 0.00112255 0.0139678 
602 1 0.0190604 0.00633924 -0.022963 0.0305088 
201 1 0.0298833 0.00124573 0.00762878 0.0308668 
1936 1 -0.0134876 -0.0116175 -0.00777448 0.0194249 
361 1 0.0140246 0.00425322 -4.00902e-05 0.0146554 
299 1 -0.028351 -0.00548602 -0.0115158 0.0310884 
4098 2 0.030987 0.0239344 -0.0196702 0.0438174 
815 1 0.022547 -3.57117e-05 -0.0178003 0.0287266 
508 1 -0.0159691 0.00634253 -0.0227669 0.0285232 
3871 2 -0.00975021 0.00385305 0.00931549 0.0140247 
1912 1 -0.00316899 0.0105829 -0.0103566 0.0151427 
1841 1 -0.00404533 0.00635595 -0.0237719 0.0249372 
3651 2 -0.0113809 -0.0271026 -0.000264013 0.0293963 
735 1 -0.00324311 0.0110695 -0.000873728 0.0115678 
330 1 -0.00737056 0.00197764 -0.0151158 0.0169329 
2363 1 -0.0128353 0.00297972 -0.00484633 0.0140396 
1765 1 0.00288569 -0.011741 0.0243999 0.0272311 
2076 1 0.0148451 0.00620403 -0.0225684 0.0277164 
6 1 0.0146281 0.0191285 -0.0201723 0.0314134 
403 1 0.00163213 0.00220235 -0.0260975 0.026241 
3482 2 0.0178082 0.0248931 0.00822799 0.0316938 
507 1 0.010549 -0.00746022 -0.0172374 0.0215421 
358 1 0.0115642 0.000108996 0.0109729 0.015942 
582 1 0.00599895 0.0180942 -0.0390389 0.0434445 
450 1 -0.00805927 0.00213542 0.0149141 0.0170863 
825 1 0.00494308 -0.00563022 0.00665297 0.0100197 
3523 2 -0.00492197 0.00416911 -0.00727241 0.00972087 
354 1 -0.00135599 -0.00571891 0.000720345 0.00592145 
3618 2 -0.0183657 -0.00372617 -0.0199295 0.0273563 
101 1 -0.0358121 0.0243586 -0.0330084 0.0544555 
156 1 0.0501806 0.00415183 0.0371565 0.0625775 
661 1 -0.00849975 -0.0246174 0.00189185 0.0261121 
233 1 -0.0257789 -0.00949982 0.0122368 0.0300756 
116 1 -0.0318275 -0.0346345 -0.00877785 0.0478496 
263 1 -0.0295108 0.00953567 0.000738082 0.031022 
3477 2 -0.0012568 0.0130371 -0.018789 0.0229036 
71 1 0.0457693 -0.00697034 0.00645103 0.0467444 
14 1 0.055006 0.00185939 0.0434128 0.0700984 
696 1 0.0255524 -0.0112433 -0.012979 0.0307862 
137 1 0.00029988 0.0288889 -0.00339873 0.0290897 
1830 1 0.0150495 0.00873101 -1.49915e-05 0.0173988 
180 1 -0.0225009 0.0240626 0.00965521 0.0343296 
4061 2 0.00347137 0.0119548 -0.0196042 0.0232227 
838 1 -0.00671382 0.0167375 0.0103529 0.0207943 
745 1 -0.0168914 -0.00801989 -0.000656843 0.0187101 
3877 2 0.0308158 -0.00778097 -0.00887236 0.0329981 
2135 1 -0.00602812 0.0287881 0.0172978 0.0341219 
60 1 -0.00303516 0.0331521 0.0409348 0.052763 
3567 2 0.00904346 0.0265259 0.0508001 0.0580178 
2558 1 0.0156675 0.0191826 -0.00831421 0.026126 
667 1 -0.037759 0.00452374 -0.0264052 0.0462974 
514 1 -0.00987707 0.0231673 -0.00515722 0.0257076 
2034 1 0.0134671 -0.016004 0.0209171 0.0295807 
3958 2 0.0237353 -0.0146984 -0.0372877 0.0465809 
1985 1 0.0298709 0.00291925 0.0135509 0.0329305 
172 1 0.0306743 -0.0108275 -0.0202539 0.0383193 
3616 2 -0.00137572 0.0119343 -0.00464024 0.0128784 
97 1 0.0162584 -0.0118277 0.00722958 0.0213658 
208 1 0.0181438 0.0211843 0.0189302 0.0337094 
139 1 0.00262449 0.00727279 0.0133007 0.0153847 
3679 2 -0.0296884 0.000158186 0.0123616 0.0321595 
168 1 -0.0112839 -0.013603 0.000743389 0.0176895 
1438 1 -0.0245558 -0.0451883 -0.0423371 0.0666138 
258 1 -0.0256075 0.00404553 0.0116019 0.0284027 
27 1 0.0244001 -0.0141623 0.0221801 0.0358872 
2136 1 -0.0132464 0.0120035 0.0162926 0.0241868 
251 1 -0.000555828 0.0203443 -0.00405539 0.020752 
41 1 0.0119522 -0.0167629 0.0431714 0.047829 
141 1 0.0102199 -0.0128092 0.020538 0.0262742 
3486 2 -0.035258 0.00111823 -0.00660876 0.0358895 
2173 1 0.00375524 0.0227031 -0.0237814 0.0330921 
380 1 0.0092754 -0.0367933 0.0247404 0.0452976 
694 1 0.004878 -0.0303814 0.0172884 0.0352946 
188 1 -0.015895 0.00976089 -0.0324154 0.037399 
4083 2 0.0381114 0.0257462 0.0207566 0.0504597 
1923 1 0.0199323 0.0323555 0.0162622 0.0413356 
793 1 -0.0438383 0.0197313 -0.0158614 0.0506232 
2846 1 -0.00180111 0.00986073 0.0125223 0.0160401 
333 1 0.0103472 0.0282411 -0.00568639 0.0306098 
3468 2 0.0134462 -0.0133758 -0.014211 0.0236994 
245 1 0.00628988 0.00673134 0.0372752 0.0383968 
438 1 -0.0417255 -0.00323548 0.0203231 0.0465243 
316 1 0.00841072 0.00792277 -0.0267626 0.0291504 
3586 2 -0.0199533 0.00146083 0.000801538 0.0200228 
2695 1 -0.0110748 0.00317721 0.0264246 0.0288271 
187 1 -0.00542891 0.00314798 -0.0268974 0.0276198 
3709 2 0.0219053 0.00716778 -0.00599083 0.0238141 
241 1 0.00151982 -0.0202955 -0.0199317 0.0284866 
1168 1 0.00396005 -0.00184161 0.0116655 0.0124562 
110 1 -0.00908875 -0.00747118 -0.00603325 0.0132221 
392 1 -0.00990233 -0.0131323 -0.025446 0.0302987 
717 1 -0.0260632 0.00674539 0.0254195 0.0370262 
689 1 0.0157908 0.0144943 -0.0126013 0.0248642 
240 1 -0.00719459 0.00627135 0.00655326 0.0115774 
3939 2 0.0153268 -0.00912491 -0.0132531 0.022222 
3656 2 0.0371635 -0.00458673 0.00434466 0.0376967 
698 1 -0.00389253 -0.0381415 0.0325538 0.0502959 
253 1 -0.01168 0.0210408 0.0186662 0.030456 
171 1 -0.00241709 -0.0158054 0.0178482 0.0239627 
862 1 -0.00809752 -0.0239504 0.00458009 0.0256937 
169 1 0.0144457 -0.00483757 -0.0274459 0.0313905 
2813 1 -0.0186229 -0.012419 -0.0400238 0.0458579 
3191 1 0.00530691 -0.027803 0.0223617 0.0360724 
409 1 -0.00120568 0.00230457 0.00202031 0.00329338 
276 1 -0.00860795 -0.00320263 0.0357969 0.0369563 
68 1 0.0142652 0.0155049 0.00516933 0.0216938 
3833 2 0.0438093 0.000512129 0.00197019 0.0438565 
3544 2 -0.000366223 -0.0199726 -0.0185962 0.0272921 
1366 1 -0.00711897 -0.00772463 -0.00784148 0.0131087 
184 1 -0.0344894 -0.0101598 -0.012406 0.0380348 
2814 1 -0.00400234 -0.00222602 0.000516812 0.00460879 
249 1 -0.0148678 -0.0150422 0.0390941 0.0444485 
3508 2 0.0262588 -0.0149531 0.0077368 0.0311926 
702 1 -0.00494327 -0.000848035 -0.00706235 0.0086621 
1146 1 0.0485162 -0.013776 0.0219437 0.0550012 
1432 1 0.0394638 0.0236678 -0.0192767 0.0498913 
627 1 -0.0155874 0.0462065 -0.0185517 0.0521745 
812 1 -0.0275358 0.0099105 0.00693073 0.0300745 
1217 1 0.028245 -0.00236648 0.043631 0.0520292 
1177 1 0.0306126 -0.01741 0.00100062 0.0352313 
1104 1 -0.020033 -0.019734 0.0256476 0.0380599 
935 1 -0.0134821 0.0328532 -0.0584887 0.0684254 
932 1 0.0165882 -0.032886 0.00543611 0.0372318 
801 1 -0.0313889 -0.00183601 -0.0155936 0.0350969 
46 1 0.0169065 0.00406148 0.046638 0.0497738 
4168 2 0.00525003 -0.00479178 0.0174724 0.0188629 
1129 1 -0.0283955 0.00459612 0.0588051 0.0654635 
26 1 0.00910878 -0.0152972 -0.0137759 0.0225111 
228 1 0.0123794 -0.0139468 -0.00659849 0.0197813 
1245 1 -0.014461 0.0223461 -0.00175398 0.0266748 
1768 1 -0.0523268 -0.0130134 -0.0147821 0.0559102 
3955 2 -0.00370883 0.0160847 0.0193639 0.0254447 
915 1 -0.00330199 0.0181131 -0.00175656 0.0184952 
1939 1 0.044092 0.0203592 0.0158373 0.0510825 
2149 1 -0.00198267 0.00318821 -0.0119813 0.0125557 
2340 1 -0.0197823 -0.0149198 -0.0140775 0.0284977 
2235 1 0.0256791 0.0175844 -0.00840663 0.0322382 
125 1 0.00884615 0.0358806 0.0196355 0.0418476 
255 1 -0.00639147 -0.0207323 -0.00565638 0.0224204 
1627 1 -0.0220565 -0.0352838 0.00978685 0.042746 
82 1 -0.000428001 -0.000891256 -0.0462986 0.0463091 
64 1 -0.0039115 -0.00352505 0.00186289 0.00558535 
211 1 0.0069909 -0.0178011 -0.0230366 0.0299405 
3571 2 0.0203882 -0.00764858 0.00472381 0.0222821 
979 1 0.0137547 -0.0133985 -0.000843655 0.0192204 
178 1 -0.0114608 0.0153507 0.00530425 0.0198779 
1135 1 0.0129676 0.0184351 0.0044694 0.022978 
418 1 -0.0159788 -0.0242201 0.0105506 0.0308748 
209 1 0.000273321 0.0376268 0.0160351 0.040902 
1821 1 -0.030025 0.0314199 0.00326214 0.0435815 
3463 2 0.0204551 -0.0112082 -0.0104953 0.025577 
342 1 0.0269131 -0.0115395 -0.01215 0.0317033 
271 1 0.0107831 -0.0349888 0.0341033 0.0500353 
281 1 -0.0179028 -0.0261106 0.0270165 0.0416193 
734 1 -0.0265615 -0.0283436 0.00648196 0.0393813 
3517 2 -0.00714478 -0.0229938 0.000197809 0.0240791 
322 1 0.014001 0.00702648 0.0105558 0.0188898 
117 1 0.0132548 0.0135153 -0.00889847 0.0209174 
2023 1 0.0250984 0.0162723 0.00928057 0.0313185 
1801 1 0.0160054 -0.0138914 -0.000926307 0.0212133 
2364 1 -0.0142442 -0.0246871 0.0133144 0.0314583 
795 1 0.00494953 0.0161389 0.00241347 0.0170525 
3500 2 0.0238029 0.0241532 -0.0152554 0.0371844 
4015 2 -0.00095493 -0.00731094 -0.0201894 0.0214936 
3591 2 -0.0141825 0.0200448 0.0194991 0.0313552 
2073 1 -0.000828224 0.00539538 -0.00730655 0.0091204 
2 1 0.00942781 -0.00483859 -0.0163 0.0194419 
37 1 0.00108711 0.000340489 0.0196141 0.0196471 
246 1 -0.0213783 0.00118797 -0.00364953 0.0217201 
3492 2 0.00867583 -0.0202655 0.00563681 0.0227538 
347 1 0.00605283 0.0211611 0.0427723 0.048103 
2242 1 0.00155369 -0.00650877 -0.0350043 0.0356382 
3589 2 -0.0137497 0.00487021 0.0176064 0.0228639 
3476 2 -0.00129598 -0.000426124 0.00712502 0.00725446 
364 1 0.00435574 -0.000913907 -0.0218144 0.0222638 
25 1 -0.0146046 0.00395907 0.0283162 0.0321057 
3485 2 0.00817254 0.0164859 -0.0452567 0.0488543 
2042 1 -0.00240795 -0.0105444 -0.00498831 0.0119108 
3587 2 0.00691742 0.00482807 0.0173004 0.0192475 
108 1 -0.00179592 -0.00174071 -0.0152278 0.0154319 
629 1 0.00145431 -0.000391924 -0.00269719 0.00308925 
165 1 0.00395099 0.0220473 0.0119111 0.0253686 
111 1 -0.00933938 -0.0148448 0.0042538 0.0180468 
501 1 -0.0133478 0.0312531 -0.0258718 0.0427115 
30 1 -0.00124638 -0.0338951 0.013038 0.0363376 
190 1 -0.0172443 -0.00617871 -0.00698838 0.0196056 
556 1 -0.0373949 -0.00237798 0.00459327 0.0377509 
4120 2 -0.00788558 0.0130728 -0.00908767 0.017767 
335 1 0.00859339 0.00639901 0.0160036 0.019259 
1722 1 0.0020821 0.0213428 0.00493031 0.0220036 
1752 1 -0.0149785 0.00285406 0.0306787 0.0342591 
2045 1 -0.0232918 0.0326828 -0.00501389 0.0404452 
3546 2 0.00339967 0.0011166 -0.0152924 0.0157055 
388 1 -0.00459589 -0.000532064 0.00180179 0.00496505 
243 1 0.0114344 -0.0159809 0.0255498 0.0322324 
2100 1 0.0207912 -0.0169377 0.00752413 0.0278527 
3842 2 -0.00588981 -0.0272992 -0.0107581 0.0299278 
576 1 0.0254579 0.0279815 0.0123382 0.0397907 
72 1 0.00192002 0.00648806 0.0203568 0.0214518 
189 1 -0.0102817 0.0014488 0.0205629 0.0230357 
167 1 0.00446051 -0.035324 -0.0180096 0.0399002 
218 1 -0.0210606 -0.0127734 -0.0161807 0.0294707 
3594 2 -0.00881696 -0.0106982 0.00860127 0.0163148 
44 1 -0.0259643 0.0118059 -0.00519992 0.0289925 
224 1 0.000122422 -0.0350921 0.0225364 0.0417057 
1778 1 0.0128645 -0.0298497 0.00820383 0.0335232 
366 1 0.0029886 0.019643 0.00658029 0.0209304 
414 1 0.0292887 0.000130055 -0.00538864 0.0297806 
45 1 -0.0352499 -0.00696003 -0.00838279 0.0368954 
3572 2 -0.00619672 0.0291836 0.012041 0.0321724 
375 1 0.00441236 0.0390271 -0.00361192 0.0394415 
296 1 -0.00290831 -0.0298532 0.0115724 0.0321495 
340 1 -0.0134393 0.0091508 0.00719808 0.017781 
423 1 -0.000324059 0.0489761 0.0257935 0.055354 
394 1 -0.0108457 -0.00471806 0.0013071 0.0118995 
2508 1 0.0233088 0.0034216 -0.00743336 0.0247035 
2033 1 0.00302239 0.00470626 0.00200627 0.00594212 
1877 1 -0.012117 0.00484552 0.0206267 0.0244082 
39 1 -0.0146982 -0.013347 0.00194882 0.0199494 
3536 2 0.0324551 -0.0246618 0.0192944 0.0450978 
12 1 -0.00402739 0.014319 0.00480086 0.0156302 
2293 1 0.011592 0.00421604 -0.01082 0.0164079 
177 1 0.00748866 -0.027161 1.53399e-05 0.0281745 
1909 1 -0.00519874 0.0343123 0.00579629 0.0351847 
706 1 -0.0130004 -0.0149189 -0.0303858 0.0362613 
4174 2 -0.0224368 -0.0361795 -0.0117773 0.0441709 
1893 1 0.0014528 0.000361852 -0.0279601 0.0280002 
2150 1 -0.0297572 0.0562202 0.000132032 0.0636099 
545 1 -0.0129158 0.00699656 0.0172333 0.0226441 
272 1 -0.0126139 0.0448885 -0.0275094 0.0541374 
80 1 -0.0286928 -0.013883 0.00944583 0.0332452 
569 1 0.0116684 -0.017361 -0.0254609 0.0329517 
3967 2 -0.00445274 -0.00470184 0.0201926 0.0212055 
106 1 -0.0331188 0.0125814 0.00918327 0.0365988 
3798 2 -0.0154152 0.0243836 0.0338944 0.0445086 
365 1 0.00109606 -0.0422637 0.0334887 0.0539344 
586 1 -0.0344499 0.0201234 0.0445134 0.0597761 
261 1 -0.0199418 0.0607034 0.0255025 0.0687965 
301 1 0.0135937 -0.0215189 0.0114501 0.0279098 
219 1 -0.0172202 0.00808301 0.0120483 0.0225174 
3569 2 0.00758741 0.0135101 -0.0149124 0.0215052 
670 1 -0.00522785 -0.0165823 0.00221741 0.0175277 
386 1 0.00708477 -0.00632016 0.0351656 0.0364247 
3971 2 -0.00335979 0.0108531 0.0042175 0.0121188 
1055 1 -0.0067161 0.0280283 -0.0115782 0.0310604 
155 1 0.0274427 0.000353759 0.016564 0.0320561 
3639 2 0.0219239 -0.00329197 -0.00293462 0.0223631 
306 1 8.46486e-05 0.01382 0.0269492 0.0302863 
1972 1 -0.0218393 -0.00861045 0.00265123 0.0236246 
2081 1 0.0228352 -0.042684 -0.0274797 0.0556642 
3968 2 -0.00177261 0.00152585 -0.0173256 0.0174828 
121 1 0.0306663 0.0213049 -0.00627951 0.037865 
421 1 -0.0040253 0.0383305 -0.0094554 0.0396842 
317 1 -0.00543447 -0.00466726 0.0357563 0.0364668 
2102 1 -0.0106679 0.0126631 -0.00303888 0.0168342 
4277 2 0.0259947 0.00926466 -0.0068346 0.0284301 
70 1 0.0112231 -0.0131728 -0.0139946 0.022256 
2037 1 -0.0212335 -0.0144517 -0.0182666 0.0315179 
400 1 0.01244 0.025176 0.007052 0.0289537 
23 1 0.0273914 -0.00831649 0.0141271 0.0319222 
357 1 -0.00610488 -0.0369261 0.0080317 0.0382794 
63 1 0.00753251 -0.0112922 -0.0297959 0.0327421 
3292 1 -7.18883e-05 -0.0311905 -0.0128839 0.0337468 
312 1 -0.0351533 -0.0114921 -0.000996281 0.0369975 
643 1 -0.000455903 0.00235907 -0.010353 0.0106281 
893 1 -0.0129115 -0.00163507 -0.0125111 0.0180529 
3534 2 -0.0258454 -0.00585584 -0.0218602 0.0343532 
268 1 0.0138811 0.0171486 -0.00823861 0.0235507 
873 1 -0.00448444 0.0238637 -0.007679 0.0254667 
359 1 0.00111125 0.017639 -0.0373411 0.0413126 
3555 2 0.00273853 -0.0252471 0.00602977 0.0261012 
1054 1 0.0317064 -0.0329303 -0.0154899 0.0482663 
351 1 0.0030158 -0.0134445 -0.035856 0.0384123 
516 1 -0.0261134 -0.00215542 0.0184086 0.0320224 
297 1 -0.0192672 -0.00522132 0.0200701 0.0283072 
785 1 0.0102084 -0.0152874 0.00803318 0.0200611 
599 1 -0.00598932 0.0143188 0.0325539 0.0360646 
239 1 0.0203785 -0.0333075 0.0077005 0.0397991 
845 1 -0.0232637 -0.00886203 -0.0203602 0.0321601 
2211 1 0.0031452 0.00564664 -0.0176448 0.0187914 
3562 2 -0.0212148 -0.00999306 0.0351849 0.0422836 
221 1 -0.0048347 -0.0375586 -0.0355267 0.0519247 
345 1 0.00738322 0.0115412 -0.00398476 0.0142685 
131 1 0.0245296 0.0263141 0.0267826 0.0448491 
3514 2 0.0109099 -0.0451972 0.00898108 0.0473548 
3653 2 -0.0201259 -0.0418317 -0.0308631 0.0557447 
99 1 -0.0144992 0.00249803 -0.017673 0.0229957 
1120 1 -0.022901 0.00608136 0.00363959 0.0239726 
965 1 -0.00630978 -0.0159916 -0.00910099 0.0194518 
2247 1 0.00402543 -0.00246501 0.00690099 0.00836087 
1012 1 0.00899412 0.0329371 0.0206838 0.0399195 
3519 2 -0.0187844 -0.0210995 0.00105427 0.0282693 
3525 2 -0.00995982 -0.00569864 -0.0096341 0.0149829 
193 1 0.00324576 0.0136739 -0.0339988 0.0367889 
1291 1 0.0044862 0.00638425 -0.000926649 0.00785769 
67 1 -0.00521618 0.0054685 0.00986171 0.0124244 
28 1 -0.000225117 0.0318041 0.0357243 0.0478307 
3811 2 -0.0199243 -0.0111974 0.0336591 0.0406853 
148 1 0.00737026 0.0178604 0.0222641 0.0294789 
1221 1 -0.0289314 -0.0245415 -0.013172 0.0401598 
1166 1 0.001303 -0.0246791 -0.0173696 0.030207 
3528 2 -0.0274525 -0.00469171 -0.00804151 0.0289882 
1265 1 0.0111817 0.0492932 -0.0243487 0.0561044 
4314 2 0.00411676 0.0142954 0.0399771 0.0426553 
1216 1 -0.0336747 -0.0410378 -0.0429228 0.0682675 
1522 1 -0.00847213 -0.0303476 0.000634921 0.0315143 
3956 2 -0.00432808 -0.00815753 -0.00555929 0.0107788 
200 1 -0.000755953 -0.00775192 0.0300967 0.0310882 
564 1 -0.0300905 -0.016557 0.00522577 0.0347402 
747 1 -0.00370755 -0.00868843 -0.0129293 0.0160126 
2360 1 -0.00520475 -0.00989573 -0.00146641 0.0112768 
975 1 0.0343495 -0.0240942 0.0073763 0.0426008 
173 1 -0.0213912 -0.0118526 -0.0208497 0.0321368 
3593 2 -0.0155179 0.010062 -0.000694322 0.0185076 
176 1 0.00696741 -0.00451139 0.0165068 0.0184763 
362 1 -0.0362108 0.0043573 0.00396775 0.0366872 
292 1 -0.0129533 -0.00696885 0.0232995 0.0275539 
701 1 0.0037172 0.00534107 0.00958837 0.011588 
179 1 0.00862946 -0.00702204 -0.0188211 0.0218635 
4036 2 0.0335278 0.00656779 0.00391389 0.0343885 
3617 2 0.00117915 0.00549483 -0.00374916 0.00675571 
3503 2 -0.0349435 -0.0253675 0.0244943 0.0496441 
232 1 -0.000167557 -0.0651786 -0.0115825 0.0662 
1641 1 -0.0548838 -0.00113354 0.012409 0.0562805 
120 1 0.0129826 0.0394462 0.0114046 0.0430652 
4230 2 -0.0335828 0.0130477 -0.00562023 0.0364641 
3950 2 0.00408514 0.0391377 0.0034103 0.0394978 
3880 2 0.033405 0.00301519 0.00432728 0.0338187 
1916 1 0.00328584 0.00485614 -0.0201567 0.0209921 
1403 1 0.00668717 -0.00993194 -0.00186098 0.0121171 
318 1 0.00895492 0.0168674 -0.0135101 0.0233928 
38 1 0.00480159 0.0321655 -0.0390396 0.050811 
904 1 -0.0126127 0.00721031 -0.012938 0.0194541 
194 1 -0.0222673 -0.00881509 -0.0275807 0.0365271 
3497 2 -0.0255616 0.00536281 -0.0376407 0.0458146 
161 1 0.0206507 0.00318475 -0.00501451 0.0214881 
1898 1 0.025584 0.000124247 0.0135604 0.0289558 
19 1 0.000136528 0.00869564 -0.0345787 0.0356556 
4076 2 0.0146793 -0.00714914 -0.0136517 0.0212829 
2083 1 -0.00398957 -0.00252991 0.00847992 0.00970701 
98 1 -0.0202723 -0.0497757 0.0362079 0.0648043 
1933 1 -0.0155292 0.0213217 0.000407614 0.0263807 
496 1 0.00942043 0.00798526 -0.0252521 0.0281101 
4084 2 0.00190947 -0.0132292 0.0177535 0.0222227 
8 1 -0.00785877 0.00816875 -0.00932786 0.0146798 
35 1 0.0366475 0.0452102 -0.0114577 0.0593151 
1810 1 -0.00728935 -0.0193567 0.00346253 0.0209715 
441 1 0.0100359 0.00323021 0.0148983 0.0182514 
4103 2 -0.0124869 -0.00259201 0.00201584 0.0129115 
162 1 -0.00570493 -0.0133866 0.00899369 0.0171066 
307 1 -0.00984908 -0.0126415 0.0128521 0.0205424 
16 1 0.0425858 -0.0147238 0.0170249 0.0481683 
1 1 0.0121485 -0.00505732 0.00709668 0.0149508 
636 1 -0.00023921 0.00894233 0.0245281 0.0261085 
21 1 0.0251725 -0.0275636 -0.00494458 0.0376544 
3674 2 -0.0228007 0.0208583 0.00718988 0.0317275 
665 1 0.00976187 -0.0396053 -0.00264899 0.0408765 
56 1 0.000282857 -0.0415874 -0.0247688 0.0484054 
431 1 0.0270675 -0.0152323 0.00515529 0.0314842 
115 1 -0.000674905 0.0161429 0.0108393 0.019456 
3686 2 0.00842317 -0.00695899 0.00360651 0.0115058 
533 1 -0.00701887 0.035311 0.00805387 0.0368917 
598 1 -0.0452974 -0.00765039 0.0238538 0.0517628 
638 1 -0.0127965 -0.00951934 -0.0357412 0.0391382 
43 1 -0.0130131 -0.014516 0.0184377 0.0268329 
3505 2 -0.000622793 -0.0213318 -0.0105717 0.0238158 
196 1 -0.00556776 0.00876462 0.00573732 0.0118632 
236 1 0.0275448 0.017887 0.00300505 0.0329801 
79 1 -0.00884383 -0.00526404 -0.0226607 0.0248883 
1779 1 0.0112082 0.00934984 0.00185489 0.0147134 
1858 1 -0.00432226 -0.00419825 -0.00240347 0.00648721 
123 1 -0.0126618 -0.0185319 0.0143917 0.0266622 
722 1 0.00683993 0.00750724 -0.0101114 0.0143312 
20 1 0.0030431 0.00116161 0.0102597 0.0107643 
476 1 0.0153182 -0.0147366 -0.0286052 0.0356381 
3946 2 0.00629422 -0.0484919 -0.0431014 0.0651829 
3516 2 -0.020489 0.0207599 0.0241469 0.0378661 
530 1 0.0115154 -0.00528137 -0.00240059 0.0128942 
2379 1 0.00932734 0.00551593 -0.0138452 0.0175817 
1925 1 0.0380524 0.00614282 -0.00505781 0.0388754 
678 1 0.00605298 0.0127931 4.52284e-05 0.0141529 
3574 2 0.0177293 -0.0112751 -0.00662641 0.022031 
260 1 -0.028324 -0.011267 -0.0124877 0.0329414 
229 1 0.00808431 -0.00923926 0.0243346 0.0272561 
3465 2 0.0175604 -0.042936 0.0242724 0.0523548 
2206 1 -0.00316155 -0.00876179 -0.0408138 0.0418632 
85 1 -0.00888715 -0.0222888 -0.0245021 0.0342947 
3694 2 -0.0108546 -0.00181734 2.69424e-05 0.0110057 
762 1 -0.00762539 -0.033151 0.0167472 0.0379157 
170 1 0.0200277 0.0215802 -0.0116759 0.0316724 
397 1 0.00810509 0.019399 -0.0157273 0.0262557 
595 1 -0.0224066 0.022883 0.0143515 0.0350949 
32 1 0.016816 0.00343447 0.00307967 0.0174372 
770 1 -0.00689986 0.00179067 -0.028972 0.0298361 
227 1 -0.0180133 -0.0282428 0.0541931 0.0637105 
3527 2 0.0352196 0.0177864 0.00561644 0.0398538 
344 1 0.0373727 0.0135083 -0.00322315 0.0398695 
204 1 0.0172734 -0.020336 -0.0141116 0.0301837 
107 1 -0.0174227 0.00351917 0.0152581 0.0234253 
355 1 0.0144801 0.021792 0.0195367 0.0326535 
3568 2 -0.0186686 -0.0025573 0.00865531 0.0207358 
174 1 6.20372e-06 0.00100688 -0.0132696 0.0133077 
642 1 -0.00085544 -0.0205836 -0.0127853 0.0242463 
3545 2 -0.0269156 0.00998881 -0.00251832 0.0288196 
4054 2 -0.0366822 -0.0320495 0.0154184 0.0510929 
3664 2 -0.0187152 -0.0171897 0.00251 0.0255351 
2520 1 -0.00924087 0.0106819 -0.00764626 0.0160612 
641 1 0.013433 -0.0198919 0.0193792 0.0308495 
1995 1 -0.0121209 -0.0174811 -0.0324829 0.0388284 
2847 1 -0.0164241 0.0119784 0.0298124 0.0360834 
407 1 0.0130431 -0.040318 0.0155112 0.0451249 
3600 2 -0.0251407 0.0176787 -0.0196426 0.036475 
4156 2 0.0159751 0.0244902 -0.00935705 0.0307006 
3441 1 -0.0196154 0.0319577 -0.0094394 0.0386673 
699 1 -0.0370479 -0.0184655 0.0061984 0.0418562 
725 1 0.0263726 -0.0405995 0.0332513 0.0587323 
490 1 -0.00708642 -0.0160659 0.0196147 0.0263262 
1573 1 -0.00858049 -0.0470274 0.00147393 0.0478265 
843 1 0.00230167 0.0254498 -0.0196053 0.0322081 
830 1 -0.00827167 0.021305 -0.00696434 0.023892 
2164 1 0.0277484 -0.00710537 0.0236961 0.0371748 
77 1 -0.0109327 -0.00554256 0.0146148 0.0190745 
640 1 0.0223835 0.0360093 0.00459681 0.0426477 
827 1 -0.00797213 -0.012721 -0.00400801 0.0155384 
3693 2 -0.0311839 -0.00466696 0.041347 0.051998 
712 1 0.0134901 0.000463719 0.011815 0.0179386 
807 1 0.00378262 0.0287029 0.0156273 0.0328995 
3512 2 -0.00758301 0.000977744 0.0225547 0.0238153 
790 1 -0.0083803 0.0172927 -0.0408464 0.0451408 
2554 1 -0.0211425 -0.00601059 2.3266e-05 0.0219803 
4218 2 0.0246136 0.00864902 0.0223821 0.0343743 
289 1 -0.030186 0.00233363 -0.0218679 0.0373476 
3493 2 0.0224555 -0.00833175 0.0367144 0.0438362 
1330 1 0.0151613 0.0232832 -0.00336399 0.0279873 
1993 1 0.00473491 0.0144239 0.0152515 0.0215192 
348 1 0.0641591 0.00316549 0.00369668 0.0643435 
311 1 -0.00418126 -0.00686589 -0.00980542 0.0126795 
2704 1 0.0610034 -0.00563996 -0.00458564 0.0614349 
3895 2 0.0094362 0.0254392 -0.00592325 0.0277719 
2856 1 -0.00940119 0.00954328 -0.00345437 0.0138344 
331 1 0.00443654 -0.00536265 -0.0269442 0.0278286 
2391 1 0.0172751 -0.0292016 0.0298247 0.0451738 
440 1 -0.00630275 -0.00879893 0.0150522 0.0185395 
3922 2 -0.00750765 -0.0293328 0.00901517 0.0315919 
1874 1 -0.00802082 -0.00851722 0.0138804 0.0181533 
3876 2 -0.0106627 0.00796255 -0.0207805 0.0246764 
461 1 -0.000702967 -0.0188258 -0.00309288 0.0190911 
234 1 0.0117445 0.029427 -0.00241816 0.0317763 
650 1 -0.00583625 -0.0216133 0.0124681 0.0256252 
816 1 0.00204172 -0.039836 -0.0374756 0.0547311 
1038 1 -0.0236912 -0.00302401 -0.0155263 0.0284866 
1624 1 -0.00601886 0.0144602 -0.0379209 0.0410282 
1101 1 -0.000124926 -0.0366715 0.00579977 0.0371275 
926 1 -0.018568 0.0100259 -0.0109355 0.0237671 
3806 2 -0.0141522 0.0102505 -0.00485769 0.0181371 
883 1 0.00577236 0.00853543 -0.0169039 0.0197969 
439 1 -0.0264197 -0.00948902 -0.0134119 0.0311114 
895 1 0.0192201 0.0202827 0.0300982 0.0410695 
1486 1 0.0323091 0.010074 0.00299914 0.0339759 
3753 2 0.0186402 -0.00220943 -0.00965967 0.0211104 
4186 2 0.00799286 0.0107783 -0.0241793 0.0276532 
654 1 -0.0137648 0.00933306 -0.00580662 0.0176151 
3490 2 0.0141103 0.0344494 -0.00291392 0.0373411 
2158 1 -0.00584871 0.0200785 -0.0112746 0.0237586 
558 1 -0.0247953 0.00714751 0.015233 0.0299656 
2009 1 -0.000145527 0.0161957 -0.0102849 0.019186 
1165 1 0.0184326 -0.0230459 -0.00783243 0.0305323 
370 1 0.0172683 -0.0369166 -0.0265699 0.0486517 
2966 1 0.0258044 -0.0311495 -0.0297095 0.0501878 
875 1 -0.0107841 0.00514825 0.0332436 0.0353262 
751 1 -0.0108954 3.55091e-05 0.0173981 0.0205282 
1343 1 0.00400437 -0.0284569 0.0312221 0.0424341 
3985 2 0.0208455 -0.0117729 -0.0249348 0.0345671 
551 1 0.0046062 -0.00603921 0.0373205 0.0380855 
266 1 0.00187126 -0.0126899 0.0121662 0.0176791 
368 1 0.0182729 -0.0190764 -0.00690646 0.027304 
3730 2 -0.0473409 -0.0020224 0.000458765 0.0473863 
1718 1 0.000961729 -0.0145536 0.00489283 0.0153841 
1642 1 -0.0149898 -0.00355348 0.0315765 0.035134 
59 1 0.00936558 0.00460337 -0.00786638 0.0130685 
749 1 -0.0206127 -0.0131334 0.0191452 0.0310469 
584 1 0.0342633 -0.00420621 0.0106424 0.0361238 
3659 2 -0.000671827 0.017042 0.00386833 0.0174884 
624 1 -0.053391 0.000815714 0.0223182 0.0578737 
3824 2 -0.0219555 -0.00901265 -0.00663083 0.0246422 
754 1 -0.0286982 -0.00710648 0.0162873 0.0337545 
13 1 0.00173865 0.0110648 0.048952 0.0502171 
3623 2 0.0271622 0.0127428 -0.00809837 0.0310765 
918 1 -0.020239 0.0142563 0.00971901 0.0265954 
346 1 0.00203215 -0.0149394 -0.0155662 0.0216707 
486 1 -0.00212633 -0.00509854 -0.0115838 0.0128336 
658 1 -0.0139033 -0.0312718 0.028506 0.0445401 
1131 1 0.0029406 -0.00906748 -0.0440168 0.0450372 
4037 2 -0.0210591 0.0191193 0.0233012 0.0367693 
1602 1 -0.00438104 -0.0332021 0.0251447 0.0418787 
1124 1 0.0439826 0.0201775 -0.02384 0.0539439 
1514 1 -0.0230772 0.0417878 -0.00677056 0.0482143 
695 1 0.0109887 -0.0138653 -0.0144443 0.0228394 
1610 1 -0.0165244 -0.0139458 0.0162833 0.0270682 
913 1 0.0191117 -0.00424174 -0.0504914 0.0541538 
2654 1 -0.00853995 -0.0147686 0.0175021 0.024441 
2530 1 0.00493962 0.0142211 -0.0166744 0.022465 
1435 1 -0.0130127 -0.0124716 -0.0193207 0.0264227 
230 1 -0.0134667 0.0159798 0.000670395 0.0209083 
1385 1 0.00233174 0.00455478 0.0120298 0.0130728 
3849 2 -0.0240567 0.00204337 0.0404067 0.0470702 
130 1 -0.00303669 -0.00250023 0.0304962 0.0307488 
10 1 -0.0125709 0.0256674 6.2696e-05 0.0285806 
413 1 0.00847404 0.0235933 -0.0152146 0.0293247 
719 1 -0.00937562 -0.0383501 -0.0109536 0.0409709 
727 1 -0.00376423 -0.00865061 -0.0131766 0.0162057 
3713 2 -0.0128778 -0.0188839 0.0362217 0.0428305 
3682 2 0.00132675 -0.0309252 -0.0232413 0.0387077 
300 1 0.0291931 -0.00247145 0.0303646 0.0421942 
1225 1 -0.0222674 -0.01272 -0.0372567 0.0452294 
622 1 -0.0180178 0.0235378 0.0216659 0.0367162 
479 1 -0.00568907 0.0193995 0.0442697 0.0486674 
3655 2 -0.037972 0.0456196 -0.00230835 0.0593999 
237 1 -0.0388847 -0.0321475 -0.0188301 0.0538521 
487 1 -0.0128331 -0.00307045 0.02471 0.0280124 
522 1 -0.0296154 0.0201037 0.00375314 0.0359905 
3462 2 0.0109617 0.00993436 0.0414444 0.0440055 