ITEM: TIMESTEP
80
ITEM: NUMBER OF ATOMS
4320
ITEM: BOX BOUNDS pp pp pp
0.0000000000000000e+00 1.9309999999999999e+01
0.0000000000000000e+00 1.9309999999999999e+01
0.0000000000000000e+00 9.6549999999999994e+00
ITEM: ATOMS id type c_displacement[1] c_displacement[2] c_displacement[3] c_displacement[4] 
4012 2 0.0291175 -0.0800533 -0.0653951 0.107391 
2361 1 -0.0523453 -0.0690933 -0.130939 0.157031 
79 1 0.0418815 -0.0584853 -0.0413456 0.0829702 
781 1 0.0524802 0.0322582 0.152553 0.164521 
461 1 0.0235554 0.0721057 0.0597391 0.0965549 
3704 2 0.0255511 -0.0995915 0.0362643 0.109025 
629 1 -0.0229773 0.10538 0.0447718 0.116779 
1571 1 0.0309413 -0.0532364 -0.0484294 0.0783383 
58 1 0.0569284 0.162632 0.0323786 0.175324 
2372 1 -0.0694825 -0.033294 -0.0308226 0.082984 
372 1 0.0269529 -0.0924099 -0.0167532 0.0977074 
3504 2 -0.0553728 -0.0758189 0.0496633 0.106213 
4130 2 0.0717441 -0.0157472 -0.106472 0.12935 
1262 1 0.0417696 0.0270059 -0.0525173 0.0723332 
907 1 -0.115788 -0.0471432 -0.14399 0.190689 
3659 2 0.00592821 0.0948394 -0.0707722 0.118484 
1298 1 0.0379707 0.0652505 -0.104384 0.128823 
1716 1 0.0577739 0.0409174 -0.063175 0.0948849 
1182 1 0.0315954 0.0428349 -0.0518724 0.0743226 
683 1 0.0157271 -0.0626804 0.0189297 0.0673387 
1958 1 -0.0538501 -0.0218014 -0.00483119 0.0582964 
1554 1 0.0431509 -0.0902132 -0.0746771 0.124808 
1037 1 0.00304139 -0.103757 0.00656721 0.10401 
749 1 -0.0390138 -0.142302 -0.00974543 0.147875 
3628 2 0.0346572 0.039328 0.00623529 0.0527891 
946 1 -0.113205 -0.0515235 0.00699444 0.124575 
2232 1 -0.0833596 -0.175042 -0.115588 0.225719 
7 1 0.0197407 -0.0658298 0.0545293 0.0877309 
501 1 0.00122713 -0.0195765 -0.0123782 0.0231941 
179 1 -0.0469235 -0.00896083 0.0506992 0.06966 
714 1 -0.120948 0.0238196 0.0491913 0.132723 
4166 2 -0.00552091 -0.0759956 0.126818 0.147948 
276 1 -0.0281726 -0.0789769 0.0766559 0.11361 
767 1 0.0130068 -0.0107413 0.0338534 0.0378233 
3890 2 -0.16264 -0.0461461 -0.05754 0.178584 
6 1 0.0220156 0.179305 0.027036 0.182664 
2086 1 0.0732736 0.024593 0.0180517 0.0793707 
224 1 0.137 -0.0739443 0.00922698 0.155955 
3660 2 0.00719585 -0.0356805 0.0987263 0.105222 
596 1 -0.0739585 -0.0202276 -0.0269415 0.0812703 
1214 1 0.0839496 -0.0461488 -0.0805907 0.125188 
3686 2 -0.0331374 -0.000917482 0.0492564 0.0593728 
427 1 -0.151061 0.0426848 0.0638998 0.169483 
350 1 0.036303 0.0609961 -0.0815459 0.108112 
85 1 -0.0510038 0.0569934 0.0955844 0.122417 
598 1 0.0449852 -0.136834 0.0626656 0.157081 
3554 2 0.0927415 -0.0175128 -0.0389662 0.102108 
29 1 -0.219057 0.0790177 -0.0430433 0.236818 
464 1 0.046656 -0.0259468 -0.130571 0.141064 
3619 2 -0.0825411 0.0109822 0.140758 0.163543 
12 1 -0.0652802 0.00793193 -0.0836369 0.106393 
364 1 -0.150368 -0.0295741 -0.0680752 0.167688 
1849 1 -0.0990975 -0.0743693 -0.107806 0.164235 
3663 2 -0.209316 0.062524 -0.0406629 0.222207 
3517 2 0.00759001 0.0137741 0.14765 0.148485 
25 1 0.221316 0.0437732 -0.0718319 0.236763 
4163 2 -0.00786827 -0.0437188 -0.00937141 0.045399 
399 1 0.0527263 0.05362 -0.0341903 0.0826084 
4265 2 -0.0479443 0.0617222 0.136034 0.156887 
527 1 -0.0191565 0.0957411 -0.0317734 0.102679 
200 1 0.0447795 0.0483291 0.124008 0.140424 
1951 1 0.113063 0.0872264 0.00540863 0.142902 
644 1 0.030834 -0.0361442 0.0323226 0.0574621 
193 1 0.0203069 0.0477345 0.0609069 0.0800038 
550 1 0.0631784 -0.0208782 0.00706334 0.0669127 
69 1 0.0330917 -0.058394 -0.00515922 0.0673167 
842 1 0.0280632 0.027829 -0.028418 0.0486783 
578 1 0.0394687 -0.0644964 -0.00815966 0.0760535 
172 1 -0.0303274 -0.0206175 0.05685 0.0676518 
381 1 -0.0321612 -0.023056 0.0398343 0.0561489 
3524 2 0.0227796 0.000629619 0.0780031 0.0812637 
688 1 -0.021953 0.13046 0.0275304 0.135128 
3651 2 -0.0412489 0.0309786 0.0894524 0.103261 
2367 1 0.0444948 0.0338898 -0.0781217 0.0960797 
1244 1 -0.129368 -0.0127248 -0.00150813 0.130002 
796 1 0.0141057 0.130586 -0.0505868 0.140751 
691 1 0.020679 0.00889711 -0.0667337 0.0704285 
421 1 0.0726235 0.0642096 0.0033739 0.0969971 
597 1 0.0373394 0.0264761 0.0454594 0.0645117 
3617 2 0.123179 -0.0272214 -0.031041 0.129914 
120 1 0.0581712 0.233012 0.118834 0.267955 
769 1 -0.0839414 -0.0623841 0.0277695 0.108208 
2142 1 0.0328383 0.0425468 -0.018327 0.0567843 
3611 2 0.10078 -0.0060012 0.181469 0.207662 
1915 1 0.00636482 0.112004 0.0796674 0.137594 
2140 1 0.0690107 -0.043713 0.0632551 0.103318 
3828 2 0.0660846 0.0906557 0.0801284 0.137863 
3204 1 -0.0346168 0.0364674 0.0774505 0.0923405 
175 1 0.104726 -0.0561108 -0.0588832 0.132601 
2011 1 0.205897 0.117524 0.0558979 0.243578 
75 1 -0.0631857 0.12736 -0.0537246 0.151985 
547 1 0.00274618 -0.0112326 -0.14891 0.149358 
4316 2 -0.0896623 0.0859947 -0.0944676 0.156072 
559 1 0.015496 0.0398857 -0.0514183 0.0668942 
717 1 0.00835819 0.0749803 -0.101504 0.126472 
242 1 -0.0139025 -0.0358989 0.140049 0.145244 
3510 2 -0.136702 0.0010202 0.186651 0.231359 
130 1 0.102628 0.0117425 0.0700935 0.124834 
143 1 0.0305313 0.0843505 -0.0287612 0.0942039 
202 1 -0.137415 -0.121892 -0.0319083 0.186436 
182 1 -0.139773 0.0707553 0.0670463 0.170406 
84 1 0.0287871 0.0181364 -0.00403899 0.0342628 
3633 2 -0.0761805 -0.0144563 -0.0424928 0.0884199 
35 1 -0.16808 0.0319204 0.141442 0.221981 
3612 2 -0.00202606 0.0316169 0.0339095 0.0464067 
40 1 0.0952445 0.103668 0.0795946 0.161721 
4005 2 0.0910945 -0.0931116 0.0857845 0.155971 
718 1 -0.108116 -0.00219945 -0.039315 0.115063 
134 1 0.0290671 0.0391987 0.0856299 0.0985592 
511 1 -0.109946 -0.0371643 0.00785847 0.116323 
757 1 -0.0302582 0.189093 0.00465447 0.191555 
3555 2 -0.0568122 0.106397 0.0784281 0.143871 
3481 2 0.00070206 -0.0452585 -0.0517382 0.0687435 
135 1 -0.041241 -0.03815 -0.0803864 0.0980725 
369 1 0.097989 -0.0408038 -0.00530862 0.106278 
2148 1 -0.056523 -0.0738706 0.0776032 0.121136 
3462 2 0.0389343 -0.0742769 -0.159276 0.180005 
1914 1 -0.0169725 -0.0207502 -0.0668292 0.0720054 
3661 2 0.0931659 -0.134745 -0.0179447 0.164797 
1871 1 0.00983828 0.0420411 -0.0251556 0.0499705 
320 1 -0.0990356 -0.0958961 -0.0589246 0.149921 
582 1 -0.0865064 -0.089211 -0.0263555 0.12703 
766 1 -0.0100372 0.0299995 -0.0555387 0.0639161 
3552 2 0.0715348 0.0192291 -0.0300711 0.0799453 
2290 1 0.00930226 0.0809144 0.0226775 0.0845455 
1794 1 -0.0685829 0.135598 0.0517469 0.160524 
753 1 -0.0171686 -0.00424065 0.0473861 0.0505786 
396 1 0.0492038 -0.0139902 0.174931 0.182257 
496 1 0.0228765 -0.0668335 -0.0833332 0.109245 
480 1 -0.0372222 -0.0787563 0.11027 0.140526 
253 1 0.0783145 -0.00458996 -0.0759936 0.109221 
4033 2 0.0124298 -0.0138692 -0.0568621 0.0598344 
347 1 -0.0252488 -0.0235417 -0.11647 0.121479 
586 1 -0.0913248 0.0264752 -0.0858484 0.128106 
3671 2 -0.0553085 0.0176905 -0.0367734 0.0687333 
37 1 0.100638 -0.17865 -0.0647002 0.215011 
782 1 0.0424993 -0.129916 -0.067793 0.152578 
481 1 0.111913 -0.0788455 -0.0554205 0.147691 
392 1 -0.0216477 -0.000185251 -0.0779914 0.0809402 
333 1 0.0178641 -0.0336642 -0.0310538 0.0491604 
342 1 -0.0113141 -0.0634325 -0.0775571 0.100831 
1179 1 0.0346015 -0.0974906 -0.0801878 0.130888 
517 1 0.0517386 -0.0898204 -0.0307445 0.108119 
1824 1 0.0293359 -0.0349707 0.0296035 0.0544051 
34 1 0.155483 -0.037546 0.049819 0.167531 
398 1 -0.00774284 -0.0411231 -0.0660528 0.0781923 
170 1 -0.0540523 -0.04966 -0.0282214 0.0786398 
235 1 0.0382867 -0.0560699 0.0701566 0.0976302 
3852 2 -0.0667668 -0.00224401 -0.0147477 0.068413 
816 1 0.0463407 -0.0647579 -0.134048 0.155916 
3931 2 -0.181511 -0.0972719 0.0633976 0.21547 
274 1 -0.0135963 -0.0770133 -0.0635229 0.100752 
30 1 -0.00765992 -0.0741195 -0.0255624 0.0787769 
2066 1 0.096359 -0.0292598 0.15553 0.185286 
1082 1 -0.0393279 -0.14896 0.161716 0.223356 
1372 1 0.0118026 -0.04634 0.0998127 0.110676 
1265 1 0.0295854 -0.0159076 -0.0285989 0.0441163 
601 1 -0.044691 0.0636391 0.0165789 0.0795116 
540 1 -0.0854216 -0.139204 -0.023088 0.164947 
589 1 -0.0269703 0.0988594 0.161568 0.191324 
958 1 0.123575 -0.0155927 0.086018 0.151371 
504 1 -0.0677337 0.0830692 -0.0308793 0.111543 
1349 1 -0.169845 -0.0245874 -0.0140143 0.172187 
9 1 0.0300669 -0.12372 -0.0264351 0.130037 
149 1 -0.0294513 0.0146424 0.00517584 0.0332952 
163 1 -0.0174054 -0.254771 0.087895 0.270068 
4247 2 0.0588156 -0.114861 -0.106841 0.167533 
1584 1 0.173994 0.00613586 -0.0585411 0.183681 
3570 2 -0.0396719 -0.116908 -0.0810595 0.147689 
237 1 -0.00713693 0.0658283 0.118176 0.135462 
490 1 0.057291 -0.13309 0.0359873 0.149299 
50 1 0.0382629 0.0265129 0.0324354 0.0567366 
152 1 0.107735 -0.011156 -0.207186 0.233789 
3652 2 -0.0813689 -0.0650662 -0.0220225 0.106487 
3823 2 0.0886902 0.0702694 -0.174127 0.207663 
902 1 -0.0188423 0.0482258 0.0290469 0.0593674 
3574 2 0.000786739 0.0330732 -0.0183368 0.0378245 
770 1 -0.0141017 -0.0256764 -0.0841825 0.0891338 
154 1 -0.06668 -0.0694126 -0.0116337 0.0969519 
116 1 0.0862987 -0.0428016 0.123838 0.156893 
710 1 -0.0802647 -0.15886 -0.0766234 0.193778 
1956 1 -0.0781599 -0.0278046 0.0242398 0.086427 
1810 1 -0.114883 0.00674218 0.00863576 0.115405 
2072 1 -0.0428067 -0.0249535 -0.0594792 0.0774136 
1649 1 -0.0577471 -0.0105886 -0.12078 0.134293 
186 1 -0.101759 0.0783424 0.0527318 0.138827 
1063 1 -0.207279 0.18412 -0.145835 0.313261 
432 1 -0.165824 0.0531798 -0.105009 0.203354 
2495 1 -0.00403028 -0.123134 0.00791276 0.123454 
3896 2 -0.0488843 -0.00730935 -0.112768 0.123125 
460 1 0.0854836 -0.0285843 -0.0409361 0.0989964 
913 1 0.0379671 0.0213443 -0.0171444 0.0468083 
1068 1 -0.0990094 0.0347389 -0.0799349 0.131906 
265 1 -0.0878546 -0.0503147 -0.0833528 0.13114 
1287 1 0.018295 0.0491578 0.0192588 0.0558757 
3799 2 0.148607 -0.0994668 -0.122007 0.216479 
554 1 0.146255 -0.0623353 0.0210202 0.160368 
1414 1 0.0013418 0.062484 -0.0530623 0.0819858 
213 1 0.00613261 0.0193679 0.0630972 0.0662871 
341 1 -0.116949 -0.0253111 0.0155094 0.120657 
3682 2 0.0196525 0.104407 -0.0523931 0.118457 
754 1 -0.0616484 0.00549309 0.0451675 0.0766212 
112 1 -0.0214588 0.0497451 0.000176629 0.0541765 
1041 1 -0.00796655 0.00686628 -0.0312717 0.0329929 
119 1 0.04832 0.0863519 -0.0457008 0.108996 
3998 2 0.0442479 -0.0498117 0.174188 0.186496 
995 1 -0.0535203 0.0205754 -0.00836031 0.0579453 
4128 2 0.0707756 -0.0212285 0.244145 0.255082 
8 1 0.0135357 0.0722044 0.00844769 0.0739463 
94 1 0.0482608 0.0594001 -0.0200042 0.0791052 
48 1 0.0840084 -0.0364798 0.111555 0.144335 
437 1 0.0747219 -0.0406865 -0.0298175 0.0901545 
3866 2 0.0639693 0.00741459 -0.0538053 0.0839169 
2206 1 0.024799 0.0224667 -0.0187687 0.0383667 
3490 2 -0.0382388 0.0176339 -0.110782 0.118515 
3072 1 -0.0249373 -0.115943 0.0592835 0.132587 
3002 1 0.111968 0.0524773 -0.0218937 0.125579 
92 1 0.0331603 0.09216 0.0575069 0.113579 
335 1 0.0313101 0.0423794 -0.0319109 0.0616007 
2192 1 0.0170676 0.0371392 0.163817 0.168839 
1186 1 0.0180094 -0.0355129 -0.0277562 0.0485378 
1114 1 0.0639725 -0.0762758 0.0229243 0.102157 
1821 1 -0.119009 -0.0766865 -0.0423977 0.147789 
1922 1 0.0460759 -0.0844627 0.0546706 0.110661 
451 1 -0.11028 -0.0308691 -0.0172811 0.115816 
3960 2 -0.0201546 -0.0367914 0.0635943 0.0761843 
100 1 -0.065272 -0.0505477 -0.0382502 0.0909867 
1180 1 0.0475536 -0.0476822 -0.100556 0.121022 
165 1 0.0712154 0.00092304 -0.0477317 0.0857368 
388 1 -0.0547368 -0.00364921 -0.109939 0.122866 
3742 2 -0.0033694 -0.0554518 0.0189665 0.0587025 
323 1 -0.102967 0.0948375 0.0483224 0.148092 
288 1 -0.120939 0.0250932 -0.0394302 0.129656 
3942 2 -0.107206 0.125083 0.109138 0.197611 
66 1 0.046409 0.0376441 0.0937494 0.111175 
340 1 0.100551 0.0752811 -0.0430032 0.132767 
138 1 -0.0235588 0.00573596 0.0634021 0.0678804 
879 1 -0.0592381 -0.0173586 -0.0494213 0.0790756 
3808 2 0.075255 0.185686 -0.0507321 0.206679 
834 1 0.0981533 0.0350082 -0.000999795 0.104214 
18 1 -0.0628213 -0.0663683 -0.101129 0.136303 
3679 2 0.121314 -0.0679026 -0.092787 0.167145 
52 1 0.00113128 -0.167967 0.0260602 0.16998 
407 1 0.0167029 0.102462 -0.0809723 0.131659 
360 1 0.0640646 -0.00782972 -0.0515203 0.0825828 
2885 1 -0.0649235 -0.00650847 0.00871101 0.0658278 
3526 2 -0.0655797 -0.234446 -0.0164195 0.243998 
310 1 -0.09823 -0.041125 -0.0594739 0.121974 
326 1 0.0922979 -0.0376875 0.0849441 0.130976 
227 1 -0.0579308 -0.0738881 -0.0805119 0.123683 
2068 1 -0.0844394 0.0119957 -0.177026 0.196499 
456 1 0.104227 -0.0131454 0.0622765 0.122125 
279 1 0.0454028 0.0572049 0.160371 0.176217 
305 1 -0.00357332 0.0180794 0.0194103 0.0267655 
49 1 0.0117423 0.029379 0.00866438 0.0328036 
3512 2 0.0442033 -0.173891 0.0208516 0.180629 
11 1 -0.0724653 -0.169872 -0.0140688 0.185218 
189 1 -0.14098 0.0910795 -0.0119825 0.168269 
2271 1 -0.0752095 -0.0972998 -0.0730626 0.143045 
319 1 -0.157354 -0.0616991 0.0244047 0.170771 
3566 2 0.0655994 0.0201023 -0.0567076 0.089012 
71 1 0.0238599 -0.00222292 0.047774 0.0534471 
1560 1 -0.0599447 0.0467681 0.0610236 0.097491 
190 1 -0.081629 0.00087732 0.133079 0.156122 
123 1 0.0748033 -0.0127546 0.102083 0.127197 
27 1 -0.0134019 -0.0397919 0.0232489 0.047995 
162 1 0.0094893 0.0563136 -0.0483625 0.0748345 
255 1 -0.141138 -0.0283213 0.00960024 0.144271 
304 1 -0.0376405 -0.00087197 -0.0962298 0.103333 
321 1 0.0223397 -0.0250253 0.135696 0.139781 
682 1 -0.105183 0.000441406 -0.00219207 0.105206 
3469 2 0.0118628 -0.00487516 -0.0827393 0.0837275 
3539 2 0.00527309 -0.00787591 0.10397 0.104401 
128 1 0.0146369 -0.0870025 -0.10235 0.135127 
3562 2 0.112439 0.0104143 0.13238 0.173998 
560 1 -0.196111 -0.0656994 -0.088007 0.224769 
212 1 0.0187614 0.0425433 -0.0752502 0.0884563 
355 1 0.00657204 0.0397469 0.0683667 0.0793538 
156 1 0.0110597 0.0588977 0.0551471 0.0814399 
3620 2 0.0914488 -0.0584288 0.0051239 0.108642 
1823 1 0.194582 -0.184238 -0.084897 0.281093 
1805 1 -0.152858 0.0106803 0.111022 0.189223 
2599 1 -0.0833313 0.0595061 0.109514 0.149928 
327 1 0.134052 0.0605238 0.0615555 0.159443 
137 1 0.0746527 0.0436338 -0.0292117 0.0912703 
2334 1 0.0162728 0.000898841 0.0188908 0.0249494 
3698 2 0.00517066 -0.0415613 -0.0431628 0.0601423 
555 1 -0.0260787 -0.032001 -0.0196821 0.0457334 
4178 2 -0.0088584 -0.0356704 0.00906994 0.0378565 
290 1 0.0180739 -0.0230241 -0.0596465 0.0664416 
284 1 0.0218662 0.0524064 0.0228208 0.0611993 
3543 2 -0.0748622 -0.101403 -0.0170294 0.127188 
366 1 0.0259003 0.000373983 0.123766 0.126448 
55 1 0.0361735 0.048009 0.00932833 0.060831 
273 1 -0.0285458 0.0261101 -0.112272 0.11875 
3468 2 0.102427 -0.020323 0.155773 0.187536 
316 1 0.154693 0.0561119 0.145216 0.219468 
81 1 -0.045518 -0.0477925 0.00397656 0.0661198 
322 1 0.0520406 -0.0381609 0.0563204 0.0856531 
239 1 0.0540318 -0.0154767 -0.0461443 0.0727204 
734 1 -0.0152057 -0.0688887 -0.0638821 0.0951724 
384 1 0.00183848 -0.0967525 -0.100916 0.139816 
3476 2 0.0239967 0.0918736 0.0127153 0.0958033 
311 1 -0.0349569 -0.11502 -0.0204472 0.121941 
3471 2 0.0365945 0.0334597 0.0699866 0.085772 
1938 1 0.0738823 -0.0363317 0.0151928 0.0837222 
139 1 0.163453 0.0432332 -0.0623482 0.180203 
727 1 0.0938672 -0.143493 -0.0477716 0.177999 
1885 1 0.00987914 0.0635452 0.00384787 0.0644236 
2184 1 0.21859 0.0682705 -0.041676 0.232764 
2494 1 -0.151878 0.0335628 -0.0990436 0.184399 
2091 1 0.0139223 0.0200828 -0.056335 0.0614067 
281 1 0.0218618 0.103005 0.146983 0.180809 
863 1 -0.0376371 0.0782559 -0.0599799 0.105537 
176 1 -0.0617364 0.0333157 -0.103256 0.124832 
3710 2 0.0130526 0.0564405 -0.0661905 0.0879607 
3572 2 -0.0536746 -0.110929 -0.103282 0.16079 
4197 2 -0.00191735 0.0555564 -0.123882 0.135782 
343 1 -0.0572332 -0.0268432 -0.0949701 0.114086 
282 1 -0.0309794 -0.00529451 -0.0795509 0.0855342 
1038 1 0.0269076 0.0451152 0.0883617 0.102797 
408 1 0.175002 -0.0418102 0.0284943 0.182169 
412 1 0.103858 -0.0086606 0.0271027 0.107685 
820 1 0.111148 0.0559562 0.132014 0.181418 
585 1 -0.0667074 -0.0315473 -0.107472 0.130366 
3609 2 0.0696524 -0.134082 0.0472275 0.158303 
719 1 -0.00395024 -0.00832663 -0.0100528 0.013638 
608 1 0.0768008 0.117577 0.114212 0.181017 
106 1 0.00848889 0.0437537 0.0202671 0.0489612 
1047 1 -0.100934 -0.0622823 -0.0448111 0.126787 
3573 2 0.0653061 0.0600001 -0.0693944 0.112608 
751 1 -0.00785157 -0.041929 -0.074737 0.0860541 
259 1 0.0562428 -0.0020472 -0.0278993 0.0628158 
245 1 -0.0355391 -0.0134617 0.0200575 0.0429715 
613 1 -0.0412823 -0.117589 0.0747389 0.145318 
4296 2 -0.0165371 0.0557191 0.00780997 0.0586438 
272 1 -0.103825 -0.142897 -0.0490991 0.18333 
4239 2 -0.179336 -0.080882 -0.0898993 0.216299 
88 1 0.0633417 0.106766 0.0982994 0.158347 
4 1 0.0636316 -0.00169089 -0.0489003 0.0802688 
361 1 0.144285 0.0760848 -0.146856 0.219485 
358 1 -0.0547335 0.049462 0.0962915 0.121303 
194 1 0.0330386 0.0272792 -0.0997154 0.10853 
2373 1 0.0219317 -0.0049186 -0.0629739 0.0668648 
1982 1 0.0616458 0.0238174 0.0515272 0.0838005 
3953 2 0.0271528 0.0718425 0.0906255 0.118792 
414 1 0.0236593 0.0455525 -0.154845 0.163131 
3186 1 0.0752716 -0.0254019 -0.0302538 0.085008 
177 1 0.0770298 -0.0308598 -0.00931981 0.0835031 
1962 1 -0.0187629 0.122913 0.166348 0.207681 
706 1 -0.00106854 0.0656958 -0.0031159 0.0657783 
1544 1 0.0284598 -0.163616 0.0557911 0.175194 
4160 2 -0.0113942 0.082974 -0.0153784 0.0851528 
19 1 -0.0628636 0.0952032 -0.0781849 0.138305 
3624 2 -0.0570586 -0.00112489 -0.0795014 0.0978643 
115 1 0.0428342 0.00331939 -0.134296 0.141 
1102 1 -0.0532901 -0.0324131 0.0869685 0.107023 
2048 1 0.129484 0.0157435 0.0193109 0.131859 
649 1 0.0246448 0.0846867 -0.0131116 0.089169 
113 1 -0.0215759 -0.0823741 0.0280726 0.089661 
1150 1 0.00162753 -0.00451802 0.0247776 0.0252387 
620 1 0.0374068 -0.103058 0.0166774 0.110898 
739 1 0.0248594 -0.0262804 -0.135628 0.14037 
2412 1 -0.028596 0.0100882 0.00345361 0.0305194 
3746 2 0.103916 0.0180105 -0.190471 0.21772 
1225 1 -0.0208397 -0.00635139 0.156194 0.157706 
241 1 0.127301 -0.0470655 -0.00210424 0.135739 
83 1 0.0280659 -0.0407755 -0.00171991 0.0495307 
1006 1 0.0623785 0.014385 -0.0186009 0.0666633 
4046 2 -0.0861365 -0.0753082 -0.0290039 0.118034 
96 1 -0.0487885 -0.165113 0.0716372 0.186479 
411 1 0.145801 0.0471915 0.0428708 0.159132 
2454 1 -0.0375992 -0.0117074 0.0614829 0.073013 
404 1 -0.0238591 0.0808687 0.0697272 0.109412 
226 1 0.0424917 -0.0198689 0.0440798 0.0643688 
534 1 0.0565331 -0.0508194 0.125728 0.146922 
3538 2 -0.0878696 0.0757117 -0.0537263 0.127827 
761 1 0.0426486 -0.0438055 0.0681914 0.0915854 
246 1 0.034151 -0.00275005 -0.0216383 0.0405225 
2229 1 -0.0881759 -0.130714 -0.0486976 0.165023 
146 1 0.0195373 -0.144252 -0.0706767 0.16182 
3608 2 -0.0319121 -0.0099556 0.0352952 0.0486132 
503 1 0.0555369 -0.0248898 -0.0156295 0.0628342 
505 1 0.1348 -0.0780488 0.024067 0.157613 
1430 1 -0.0307818 -0.0735934 -0.0857493 0.117117 
97 1 -0.144554 0.0645118 -0.088699 0.181453 
1723 1 0.0165877 -0.0266427 -0.0918279 0.097043 
3561 2 0.0375476 0.203544 -0.0640485 0.216661 
20 1 -0.0678936 -0.00734328 0.0218445 0.0716983 
263 1 -0.0527024 0.160618 -0.0120695 0.169474 
817 1 0.09969 -0.0899851 0.0230472 0.136259 
1034 1 -0.0276287 0.0514815 0.00804672 0.0589783 
353 1 0.00688097 -0.092868 0.184713 0.206859 
1260 1 0.0408278 0.114778 -0.0660801 0.138591 
998 1 0.0417215 0.13436 -0.0854394 0.1646 
1932 1 0.124798 -0.1056 -0.0553147 0.172585 
36 1 0.0868028 -0.191711 -0.0965628 0.231543 
38 1 0.0345885 0.0629892 -0.0350428 0.07995 
3130 1 -0.0207563 -0.021916 -0.0509871 0.0592522 
1973 1 0.103729 0.0942307 0.132024 0.192534 
307 1 0.104982 -0.0253283 0.0427898 0.116163 
2714 1 0.0711081 0.0218785 0.000570743 0.0744 
28 1 0.0701575 0.0687673 -0.0150168 0.0993807 
1937 1 0.0102797 0.0816302 -0.0701278 0.108107 
562 1 -0.0658635 -0.10845 -0.0323549 0.130943 
3011 1 -0.00618059 0.0198538 -0.0186099 0.0279052 
410 1 0.0670082 -0.137427 0.0487245 0.160469 
693 1 0.0980611 0.0676935 0.199029 0.231972 
367 1 0.00395744 0.00977587 -0.00102349 0.0105961 
318 1 0.0394052 0.0352045 -0.154742 0.163515 
735 1 0.157293 0.017758 0.0292966 0.16098 
600 1 0.0128538 0.00406463 0.0375902 0.0399345 
3590 2 0.0569437 0.11405 0.0699414 0.145402 
3636 2 0.0551987 -0.0638033 0.015366 0.0857547 
26 1 -0.148928 0.0279975 0.0891126 0.175796 
1199 1 0.032105 0.105991 -0.0595417 0.125738 
614 1 0.0169119 0.0428142 -0.0954411 0.105963 
459 1 -0.0924835 -0.0540855 -0.0562556 0.121009 
3645 2 0.0606808 0.122171 0.0599716 0.149011 
574 1 0.0812615 -0.0957892 0.134325 0.183908 
780 1 0.147021 0.0288284 0.0142733 0.150499 
161 1 -0.113448 -0.0560162 0.154519 0.199711 
309 1 0.103607 0.0821632 -0.0244139 0.134466 
365 1 0.0751409 -0.133429 -0.0243419 0.155055 
191 1 -0.0790674 0.0989549 -0.0197802 0.128199 
1766 1 -0.0763334 -0.0462681 -0.0061227 0.0894707 
2775 1 0.1144 -0.061051 -0.0377728 0.135061 
1030 1 0.130152 -0.149196 0.00310517 0.198012 
1505 1 0.173283 0.177688 0.134222 0.282162 
3872 2 -0.0587682 0.0299996 -0.0181766 0.0684402 
580 1 -0.0248881 -0.03255 0.0205392 0.0458342 
2054 1 -0.0230434 -0.0996529 -0.0210257 0.104421 
2064 1 0.072012 0.0189885 0.00111104 0.0744817 
529 1 0.00710811 0.0291888 -0.067289 0.0736907 
402 1 -0.0322225 0.0777725 0.0101184 0.0847894 
124 1 -0.101438 -0.078974 0.0374288 0.133894 
744 1 0.111289 -0.0271114 0.0675699 0.132989 
185 1 0.0570642 -0.0388575 0.0869541 0.111028 
315 1 0.0325428 -0.02672 -0.0206797 0.046911 
655 1 0.00234003 -0.0983215 0.179782 0.204925 
765 1 0.0192192 0.0179411 0.0355767 0.0442375 
140 1 -0.015121 0.0591914 -0.178588 0.188748 
59 1 0.023995 -0.0281089 0.0904375 0.0976975 
54 1 0.0291341 0.0785883 0.0351243 0.090877 
3506 2 -0.0363551 0.126427 -0.127184 0.182979 
666 1 0.0314454 -0.216871 0.0800682 0.233308 
43 1 0.091613 0.0636797 0.111224 0.15754 
334 1 -0.0943516 -0.070486 0.0784 0.141482 
267 1 0.127079 0.0595981 -0.157142 0.2107 
99 1 0.0856449 0.12006 0.0793387 0.167464 
1189 1 -0.126087 -0.00269815 -0.18808 0.226449 
201 1 -0.0417816 -0.0314868 -0.0474853 0.0706539 
380 1 -0.00579231 0.0918363 -0.130408 0.159605 
1777 1 -0.00857381 -0.0165186 -0.0596191 0.0624565 
2597 1 0.210461 0.00303544 0.0649955 0.22029 
2484 1 0.155535 -0.0305327 0.0127044 0.159012 
308 1 0.0246648 -0.00492284 -0.0886379 0.0921372 
3918 2 -0.0203552 0.159833 0.0969341 0.188035 
89 1 -0.10755 0.0282561 0.00701669 0.111421 
300 1 -0.0316738 -0.0177087 0.0233601 0.043157 
3582 2 0.0704553 -0.0238187 -0.058466 0.0946021 
712 1 -0.0295828 0.106325 -0.0787777 0.135595 
3836 2 -0.0270517 0.0898816 -0.0481369 0.105488 
268 1 -0.0335126 -0.00280706 0.0645131 0.0727525 
788 1 -0.0185936 0.120652 -0.0542159 0.133574 
4091 2 -0.0303597 0.131922 -0.0154298 0.136247 
371 1 -0.000456703 0.0200146 0.121507 0.123145 
3505 2 0.104046 -0.0077014 -0.0026324 0.104364 
266 1 0.137979 -0.0514678 -0.101277 0.178729 
3571 2 0.00637391 -0.0734269 0.0771665 0.106709 
637 1 -0.0336241 -0.0112493 -0.0839649 0.091144 
157 1 -0.0728759 -0.0406437 0.0761964 0.112999 
257 1 -0.0212005 0.00713844 0.034511 0.0411269 
571 1 -9.20233e-05 0.0424959 0.0368523 0.0562495 
665 1 -0.148847 -0.0500354 0.140466 0.210689 
448 1 -0.179915 -0.13306 0.00538389 0.223838 
827 1 0.0661721 0.0759893 0.0424784 0.109351 
3475 2 0.0965393 0.0250443 0.0526414 0.112775 
73 1 -0.0425791 0.0648072 -0.0121328 0.0784867 
373 1 0.101986 0.0101175 0.0835541 0.13223 
247 1 0.0346564 -0.00472439 -0.0762198 0.0838621 
107 1 0.0597319 0.0676222 -0.084429 0.123567 
675 1 -0.0783139 0.042195 -0.116074 0.146242 
434 1 0.0867251 0.0714699 -0.049829 0.122931 
159 1 -0.0517409 0.0923935 -0.0523679 0.118136 
32 1 0.0600786 0.130244 -0.0185569 0.144628 
3579 2 0.0873976 -0.0187984 -0.142794 0.168469 
394 1 -0.0618645 0.00712382 0.070962 0.0944117 
260 1 0.00809154 0.04939 0.0425704 0.0657045 
3972 2 -0.0767403 0.0580993 0.0772791 0.123437 
1801 1 -0.0431268 0.044401 0.0251572 0.066815 
2122 1 0.022724 0.044944 0.188016 0.194644 
1966 1 0.0243856 -0.0622404 -0.0916557 0.113443 
291 1 -0.011322 0.00375127 0.0607774 0.0619367 
2047 1 0.0904322 0.0494784 0.00774604 0.103374 
1899 1 0.0484401 0.0616413 -0.0111184 0.0791815 
622 1 -0.00803991 0.166041 -0.0193804 0.167362 
1993 1 0.00481279 -0.0115682 0.0265604 0.0293673 
62 1 0.00842869 0.0252933 0.0616505 0.0671682 
2187 1 -0.0738014 0.0564153 -0.103602 0.13915 
4318 2 0.0941679 0.027677 0.031504 0.103083 
44 1 0.0177611 0.0474564 0.0964964 0.108991 
824 1 0.0431725 -0.0206679 0.0849659 0.0975204 
1282 1 0.0327654 0.00821664 0.0954171 0.10122 
3626 2 0.159884 0.0985515 -0.0471403 0.193643 
819 1 0.0721956 0.115338 0.0552483 0.146859 
773 1 -0.122156 -0.166694 0.0608448 0.215432 
270 1 -0.0665598 -0.0525555 -0.0603412 0.104083 
14 1 -0.130636 -0.058979 0.00875289 0.1436 
3540 2 0.0607783 -0.077533 0.0228479 0.101131 
997 1 0.0538423 -0.0157782 -0.0948659 0.110216 
4275 2 -0.0389882 -0.0831623 -0.187722 0.208987 
164 1 0.013555 0.0339557 0.126712 0.131882 
234 1 0.0352914 -0.00649011 0.0618398 0.0714966 
1125 1 -0.0144359 -0.0499005 -0.0717662 0.0885937 
3985 2 0.0107079 0.0181281 0.0428773 0.0477676 
328 1 0.012094 -0.00557337 -0.0332004 0.0357714 
3474 2 0.0464488 0.00527045 -0.0766345 0.089767 
543 1 -0.052522 -0.00635936 0.0161458 0.0553144 
293 1 0.095765 -0.0808551 0.124823 0.176888 
3458 2 0.124393 -0.02272 0.110188 0.167723 
390 1 -0.0119225 0.00154221 -0.130427 0.13098 
3706 2 0.0805383 -0.235199 -0.169479 0.300879 
2169 1 0.0868789 0.0795545 -0.0891224 0.147715 
1786 1 0.0681671 -0.0051136 -0.00746369 0.0687649 
1478 1 -0.0387184 0.0643991 0.0969384 0.122652 
87 1 0.0252978 0.0101262 -0.0444974 0.0521779 
4090 2 -0.0864593 -0.0337528 0.0358634 0.099502 
142 1 0.0177902 0.0224488 0.00823293 0.029803 
1650 1 -0.0829147 -0.104521 -0.0455641 0.140981 
153 1 0.0820228 -0.0392027 0.0150051 0.0921398 
374 1 0.0178769 -0.0763005 -0.0902221 0.119505 
602 1 0.0281872 -0.0502594 -0.133552 0.145453 
1277 1 -0.0572442 0.0118184 0.0288499 0.0651835 
76 1 0.031677 0.00604287 0.177652 0.180555 
1370 1 0.0515753 -0.0290928 0.0698941 0.0916056 
221 1 -0.0290494 0.0607347 -0.0132721 0.0686201 
604 1 -0.111226 0.0282415 0.0671745 0.132971 
1161 1 -0.0215572 -0.0768714 0.0615706 0.100821 
1718 1 -0.0543814 0.0385511 -0.112301 0.130595 
178 1 -0.0868756 -0.284346 -0.0309273 0.298926 
295 1 -0.177325 -0.0946182 -0.0128989 0.201403 
1472 1 -0.10378 -0.00124923 -0.039842 0.111173 
4159 2 0.000889936 -0.0357444 -0.0189305 0.0404576 
3467 2 0.0827508 0.00439679 -0.0692855 0.108016 
3531 2 -0.0975321 -0.0940281 0.144137 0.197811 
2720 1 -0.0188144 0.067972 -0.0765523 0.104089 
1851 1 -0.0222325 0.00059064 -0.00452037 0.0226951 
732 1 0.0366415 -0.066925 0.0267323 0.0808466 
446 1 -0.306708 0.102587 0.0912711 0.336042 
3878 2 0.072195 0.0950438 -0.0407694 0.126125 
3185 1 -0.171741 0.00370958 0.000198969 0.171781 
110 1 -0.106514 0.0161732 0.0117061 0.108369 
2963 1 -0.0354543 0.0508634 -0.0228844 0.0660893 
2608 1 -0.0100365 -0.0115863 0.0167467 0.022703 
3301 1 0.038022 0.0242259 0.139955 0.147037 
3759 2 -0.0417435 -0.0568852 -0.0398785 0.0810478 
4171 2 -0.112142 0.0304714 0.0732394 0.137362 
2118 1 -0.0165983 0.0251009 -0.061687 0.0686356 
1742 1 -0.000217668 0.00855081 0.0464689 0.0472496 
642 1 0.0467829 -0.220008 -0.0030267 0.224947 
3366 1 -0.0583607 0.020419 0.0760124 0.0979837 
144 1 0.108056 0.122701 -0.00773652 0.163681 
681 1 0.0292856 -0.00416301 -0.0958611 0.100321 
1666 1 0.0300876 -0.0584364 -0.0470347 0.0808229 
183 1 -0.0834881 -0.118597 -0.0435688 0.151439 
694 1 -0.129704 0.0162728 0.0646902 0.145852 
444 1 -0.0628077 0.0363391 -0.136212 0.154334 
869 1 -0.0463586 -0.144835 0.14066 0.207151 
920 1 -0.0691817 -0.14789 0.0459974 0.169627 
53 1 0.0927381 -0.00748453 0.0500386 0.105642 
1450 1 -0.288961 -0.015642 -0.0986129 0.305725 
1579 1 0.0222946 -0.0845976 0.0502704 0.100901 
51 1 0.108673 -0.0341901 -0.0563662 0.127106 
4187 2 -0.0860993 -0.0870297 -0.145261 0.189969 
1694 1 0.0124059 -0.11267 0.241486 0.266766 
1590 1 0.0452218 0.0132874 -0.0669774 0.0818996 
2005 1 0.0768116 -0.122597 0.121219 0.188744 
736 1 -0.135304 0.0279909 -0.0248576 0.140387 
363 1 0.139311 0.00862349 -0.00244838 0.1396 
230 1 -0.0127995 0.00393665 0.114805 0.115583 
2538 1 0.0947649 -0.098524 -0.0316847 0.140326 
357 1 -0.0551179 0.00494734 -0.0608138 0.0822239 
3849 2 0.185531 -0.0604927 -0.147416 0.244566 
4102 2 0.00614796 -0.131029 0.0636355 0.145794 
1032 1 0.0749997 0.054167 0.0716818 0.117035 
78 1 0.00927215 0.0571147 -0.0200299 0.0612312 
564 1 0.297602 -0.0812056 0.0920751 0.32193 
797 1 0.150127 -0.0637651 -0.0111552 0.163489 
1476 1 0.25035 0.0499372 -0.0140031 0.255666 
872 1 -0.0822321 0.0231587 -0.0522231 0.100128 
475 1 0.0249053 -0.027034 -0.004674 0.0370535 
4119 2 0.284069 -0.133525 -0.102806 0.330293 
576 1 -0.1255 0.0562639 0.0781981 0.158211 
507 1 0.0534311 -0.14504 0.0304377 0.157537 
248 1 0.047838 -0.0466376 -0.027605 0.0722881 
3597 2 -0.0723527 0.0556431 0.0814881 0.122358 
539 1 0.000889077 -0.0340662 0.0415827 0.0537627 
63 1 0.0684461 -0.0146244 0.123664 0.142097 
57 1 -0.0291639 -0.0825857 0.021697 0.0902313 
854 1 -0.0698322 0.00876318 0.0198184 0.073117 
668 1 0.0896903 -0.138691 -0.0834962 0.18507 
385 1 -0.0887298 -0.266386 0.116381 0.303939 
752 1 0.00436262 0.0625369 -0.0265683 0.0680864 
3650 2 -0.0019786 0.161654 -0.0914876 0.185757 
3736 2 -0.0902676 -0.188895 0.0550551 0.216473 
254 1 -0.163027 -0.145534 0.0122777 0.218881 
3637 2 -0.0154186 -0.0400503 0.0348958 0.0553125 
731 1 -0.0322287 -0.076682 0.0140475 0.0843572 
2304 1 0.0874912 -0.158897 0.00747438 0.181545 
610 1 -0.212902 0.0270268 -0.104112 0.238531 
292 1 -0.144154 0.0238542 -0.0135235 0.146739 
313 1 -0.101126 0.00549759 0.0171756 0.102721 
2133 1 -0.0131259 -0.0961236 -0.0449917 0.106941 
646 1 -0.106269 -0.035128 -0.096432 0.147737 
271 1 0.0337563 0.120791 0.0471489 0.133989 
584 1 -0.0468984 0.12445 -0.0648941 0.147982 
3649 2 -0.0835906 -0.00461226 0.0513974 0.0982362 
1148 1 -0.0396758 0.13292 0.135139 0.19366 
779 1 -0.118469 -0.0773469 0.0456109 0.148653 
621 1 -0.137051 0.0598385 0.0290429 0.152339 
16 1 -0.0372168 -0.0251003 0.116728 0.125062 
3635 2 -0.0746666 -0.239054 0.0559844 0.256625 
790 1 0.0977337 0.0359614 0.1217 0.160175 
17 1 -0.0410797 -0.0559536 0.138591 0.155003 