ITEM: TIMESTEP
52
ITEM: NUMBER OF ATOMS
4320
ITEM: BOX BOUNDS pp pp pp
0.0000000000000000e+00 1.9309999999999999e+01
0.0000000000000000e+00 1.9309999999999999e+01
0.0000000000000000e+00 9.6549999999999994e+00
ITEM: ATOMS id type c_displacement[1] c_displacement[2] c_displacement[3] c_displacement[4] 
4012 2 0.0384076 -0.0774234 -0.00950657 0.0869477 
2361 1 -0.0336447 -0.0927832 -0.0722236 0.122299 
79 1 -0.048491 -0.0779539 0.0179511 0.0935437 
781 1 0.0593262 -0.0292078 0.0951662 0.115885 
461 1 0.00470497 0.0275606 -0.0310373 0.0417736 
3704 2 0.00439491 -0.0833934 0.0154525 0.0849268 
629 1 -0.0684443 0.0904348 0.0378882 0.119577 
1571 1 0.0113074 -0.0136375 -0.0312555 0.0359269 
58 1 0.103467 0.0788566 0.114713 0.173444 
2372 1 -0.0540636 -0.0369346 -0.00856833 0.0660337 
372 1 0.0101904 -0.0520693 -0.0159796 0.0554112 
3504 2 -0.0207631 -0.083152 0.0410174 0.0950147 
4130 2 0.030539 -0.0228578 -0.0863053 0.0943595 
1262 1 0.0587726 0.091403 -0.0642102 0.126221 
907 1 -0.103485 -0.0647884 -0.141598 0.186967 
3659 2 -0.00140653 0.170948 -0.101874 0.199006 
1298 1 0.0572295 0.0697963 -0.102329 0.136447 
1716 1 0.0363698 0.0786587 -0.0675704 0.10989 
1182 1 0.0406595 0.0205271 -0.0182764 0.0490773 
683 1 -0.021032 -0.0506292 0.060451 0.0816088 
1958 1 -0.00031039 -0.0612309 0.0552512 0.0824743 
1554 1 0.0332127 -0.0786374 -0.0773335 0.115184 
1037 1 -0.00768288 -0.155174 0.0213134 0.15682 
749 1 -0.103453 -0.0861664 0.0481186 0.142978 
3628 2 0.049712 0.0592035 0.000424125 0.0773079 
946 1 -0.0483951 -0.0125361 -0.0593277 0.0775823 
2232 1 -0.0113713 -0.0738234 -0.0945676 0.120508 
7 1 0.0409571 0.0102386 0.0283922 0.0508766 
501 1 -0.00574559 0.0554032 -0.075391 0.0937354 
179 1 -0.0319727 -0.0311061 -0.0696243 0.0826885 
714 1 -0.103902 -0.0393932 0.114134 0.159292 
4166 2 0.0056753 -0.0714699 0.027635 0.0768365 
276 1 -0.0301595 0.00140355 0.114422 0.118338 
767 1 -0.054008 -0.0298599 0.0310524 0.0690849 
3890 2 -0.186352 -0.0499483 -0.119373 0.226874 
6 1 0.0158339 0.144681 -0.0328572 0.149207 
2086 1 -0.00606175 0.00816032 0.044543 0.0456882 
224 1 0.0683073 -0.043831 0.00569082 0.0813599 
3660 2 0.0240052 0.0118449 0.0603935 0.06606 
596 1 -0.08967 -0.00851752 -0.00859067 0.0904824 
1214 1 0.0192316 -0.067536 -0.0830166 0.108732 
3686 2 0.0283917 0.0176307 0.0295788 0.04463 
427 1 -0.0876734 0.0739377 0.0995823 0.151888 
350 1 0.0144286 0.0640407 -0.0376512 0.075677 
85 1 -0.0284715 0.0264483 0.0420389 0.0572487 
598 1 -0.0134408 -0.0601796 0.111249 0.127195 
3554 2 0.0366937 -0.036572 -0.0376024 0.0640147 
29 1 -0.0954449 0.0619308 0.0143554 0.114679 
464 1 -0.00212093 0.0184334 -0.0913818 0.0932466 
3619 2 -0.0555569 0.0466573 0.0988504 0.122617 
12 1 -0.0202872 -0.136765 -0.0326421 0.142063 
364 1 -0.131566 -0.00109831 -0.0943711 0.161916 
1849 1 -0.0712644 -0.109522 -0.0558729 0.142111 
3663 2 -0.169211 0.0576719 -0.0333009 0.181844 
3517 2 0.0255582 0.00733072 0.115057 0.118089 
25 1 0.188396 -0.00493506 -0.0561494 0.196647 
4163 2 0.029623 -0.0096935 -0.0281355 0.0419891 
399 1 0.0369605 0.023331 -0.0252259 0.0504655 
4265 2 -0.0597449 0.0694557 0.0507066 0.104713 
527 1 0.0309715 0.0207544 -0.044236 0.0578516 
200 1 0.0883305 0.0403544 0.0908556 0.132987 
1951 1 0.132372 0.111003 0.0477296 0.179227 
644 1 0.0309478 -0.0460279 0.0580464 0.0802852 
193 1 0.0434545 0.0955308 0.028316 0.108702 
550 1 0.0159982 -0.0328032 -0.0338783 0.0497969 
69 1 0.0248717 -0.00803105 -0.0152015 0.0302355 
842 1 -0.0777374 0.0395339 -0.0517731 0.101422 
578 1 -0.0119829 -0.00283709 0.0188992 0.022557 
172 1 -0.0244158 -0.0564812 0.02351 0.0658709 
381 1 -0.0165479 0.0132214 -0.05414 0.0581358 
3524 2 0.0589459 -0.105389 0.139117 0.184214 
688 1 -0.0886385 0.10557 -0.0254615 0.140179 
3651 2 -0.0497154 0.0524386 0.0461763 0.0857536 
2367 1 0.0443741 0.00885988 -0.0244395 0.0514281 
1244 1 -0.0964492 -0.0310483 0.00481929 0.101438 
796 1 -0.0758469 0.107696 -0.0369475 0.136807 
691 1 0.0553385 -0.0131139 0.0175627 0.0595212 
421 1 0.0597515 0.0436471 0.0702723 0.102047 
597 1 -0.0269644 0.0596304 -0.00276595 0.065502 
3617 2 0.0485444 -0.00196863 -0.0440846 0.065604 
120 1 0.083717 0.127559 0.0704431 0.168054 
769 1 -0.0674722 -0.019041 0.0533579 0.0881029 
2142 1 -0.00999805 0.0385785 -0.0336874 0.0521834 
3611 2 0.156524 0.0350413 0.158249 0.225323 
1915 1 -0.016064 0.0596883 0.0477174 0.0780877 
2140 1 0.00503168 -0.015976 0.108176 0.109465 
3828 2 0.117521 0.0397649 0.0568969 0.136491 
3204 1 0.000852665 0.069163 0.0440524 0.0820053 
175 1 0.106123 0.0369398 -0.0395351 0.11912 
2011 1 0.126384 0.0428095 -0.0292876 0.136613 
75 1 0.00578448 0.117404 -0.0421604 0.124878 
547 1 -0.00727701 -0.0367754 -0.0991385 0.10599 
4316 2 -0.0749405 0.0499576 -0.0535989 0.104808 
559 1 0.0342477 0.0452888 -0.0115834 0.0579496 
717 1 -0.0158542 0.0817489 -0.0511045 0.0977032 
242 1 0.00310502 -0.0392499 0.0759129 0.0855159 
3510 2 -0.0859253 0.0301326 0.107685 0.141022 
130 1 0.104161 -0.0302742 0.130297 0.169539 
143 1 -0.0131811 0.0662478 -0.0733758 0.0997322 
202 1 -0.147758 -0.0858849 -0.0689018 0.184272 
182 1 -0.132668 0.0459071 0.000299871 0.140387 
84 1 0.0429916 -0.0318 -0.0297981 0.0612164 
3633 2 0.0134515 -0.0692382 0.031133 0.0770982 
35 1 -0.158583 0.0272514 0.123797 0.203019 
3612 2 0.027697 0.0419923 -0.0320038 0.0596214 
40 1 0.155671 0.0989607 0.0854656 0.2033 
4005 2 0.0614476 -0.0810281 0.0391603 0.108972 
718 1 -0.0846798 -0.00894252 -0.0563947 0.102132 
134 1 -0.0297712 -0.00243954 0.103515 0.107738 
511 1 -0.0503788 -0.0511015 0.0138128 0.0730765 
757 1 0.0362717 0.154306 0.00453808 0.158576 
3555 2 -0.0695507 0.0717779 0.0441123 0.109249 
3481 2 -0.0285677 -0.0128996 -0.0414304 0.0519518 
135 1 0.0105687 -0.0443201 -0.0644028 0.0788904 
369 1 0.0628545 -0.0390858 0.0874334 0.114556 
2148 1 -0.0975631 -0.0578919 0.0331088 0.118179 
3462 2 0.0509624 -0.068208 -0.167418 0.187825 
1914 1 0.00457058 0.0585714 0.0124397 0.060052 
3661 2 0.0879645 -0.12846 0.0133817 0.156265 
1871 1 0.0151459 0.0353228 -0.0469665 0.0606873 
320 1 -0.053023 -0.0333558 -0.0460589 0.0777526 
582 1 -0.020944 -0.106819 -0.0446035 0.117637 
766 1 -0.0257546 0.0147712 0.000433758 0.029693 
3552 2 0.00534324 -0.0316168 0.00159417 0.0321047 
2290 1 -0.0450653 0.0343715 0.0296064 0.0639439 
1794 1 0.00117889 0.0517299 0.0844356 0.099029 
753 1 -0.0543813 0.0447371 0.053677 0.0885435 
396 1 0.00420319 -0.010003 0.143519 0.143929 
496 1 -0.00364418 0.00137044 -0.0945498 0.09463 
480 1 -0.0454102 -0.0594151 0.0840212 0.11248 
253 1 0.0476642 -0.00568961 -0.0198798 0.0519563 
4033 2 -0.0150849 0.0247364 -0.0626228 0.0690005 
347 1 -0.0484989 0.0240954 -0.0191456 0.0574394 
586 1 -0.102588 0.0483306 -0.11331 0.16031 
3671 2 0.0501203 0.0181943 -0.0633632 0.0828129 
37 1 0.0176121 -0.121128 -0.00317715 0.122443 
782 1 0.0300087 -0.129626 -0.0336904 0.137253 
481 1 0.0824706 -0.0211644 -0.0802982 0.117035 
392 1 -0.0353175 0.0454108 -0.097133 0.112891 
333 1 0.0511607 -0.0419439 -0.0192889 0.0689113 
342 1 -0.023216 -0.038262 -0.0354826 0.0571137 
1179 1 -0.00337811 -0.0231873 -0.062257 0.0665206 
517 1 0.00597229 -0.0905486 -0.0256647 0.0943048 
1824 1 0.0550864 -0.0513667 0.108199 0.131834 
34 1 0.0716737 0.00599679 0.0359566 0.0804112 
398 1 -0.0129075 -0.0520052 -0.077576 0.0942825 
170 1 -0.068793 -0.0666786 -0.0572328 0.111598 
235 1 0.0419782 -0.110664 0.081831 0.143892 
3852 2 -0.0303223 -0.00445013 -0.0128108 0.0332169 
816 1 0.0429441 -0.0297525 -0.0747068 0.091162 
3931 2 -0.134725 -0.130088 0.09609 0.210492 
274 1 -0.0244421 -0.0524962 -0.0169425 0.060335 
30 1 -0.00467425 -0.0260962 -0.0366075 0.0451992 
2066 1 0.0752312 -0.0401141 0.13723 0.161558 
1082 1 -0.00797973 -0.102852 0.0880218 0.13561 
1372 1 0.00635901 -0.0507612 0.103462 0.115419 
1265 1 0.0844638 -0.0411081 -0.0861444 0.127455 
601 1 -0.0125507 0.0736749 0.0200105 0.0773688 
540 1 -0.0148298 -0.0362167 -0.00361256 0.0393017 
589 1 -0.0453105 0.148659 0.106394 0.188341 
958 1 0.126417 -0.0153995 0.0074905 0.127571 
504 1 -0.0834133 0.05094 -0.0302867 0.102323 
1349 1 -0.0929391 0.0144049 -0.066175 0.114997 
9 1 0.0207354 -0.12205 0.0236413 0.126036 
149 1 -0.00957419 0.0707052 -0.0170088 0.0733497 
163 1 0.0193336 -0.146608 0.0400818 0.153213 
4247 2 0.018473 -0.0703272 -0.0473293 0.0867596 
1584 1 0.166329 -0.0114386 -0.0877881 0.188422 
3570 2 -0.0330825 -0.0934666 -0.0100558 0.0996573 
237 1 0.0188037 0.0586568 0.0705884 0.0936852 
490 1 -0.00112212 -0.0753066 -0.0302034 0.0811455 
50 1 -0.0393162 -0.0321254 0.0202809 0.0546728 
152 1 0.073635 0.00314764 -0.0753855 0.105428 
3652 2 -0.0414536 -0.0328448 0.00118663 0.0529017 
3823 2 0.0510276 0.0943703 -0.127149 0.166362 
902 1 0.0275072 0.065341 -0.0157462 0.0726225 
3574 2 -0.039788 0.0617724 -0.0589131 0.0941789 
770 1 -0.0141176 -0.0679894 -0.0479405 0.0843811 
154 1 -0.0275948 -0.0464588 -0.00759819 0.0545676 
116 1 0.0949268 -0.0578729 0.0574616 0.125149 
710 1 -0.0901783 -0.155349 -0.095871 0.203609 
1956 1 -0.0329678 0.0233398 -0.0265292 0.0483262 
1810 1 -0.111155 -0.0345331 0.0646067 0.133124 
2072 1 -0.0673375 -0.0355132 0.00628309 0.0763872 
1649 1 -0.0564918 0.0261469 -0.0782406 0.0999829 
186 1 -0.0532807 0.0500504 0.0759156 0.10539 
1063 1 -0.0762405 0.107236 -0.177426 0.22089 
432 1 -0.137906 0.0709672 -0.138942 0.208229 
2495 1 -0.0451069 -0.104202 0.0691976 0.13297 
3896 2 0.00096881 -0.0149794 -0.0789363 0.0803508 
4115 2 0.028211 -0.00802322 -0.0275471 0.0402378 
913 1 0.0579963 -0.0467591 0.0226445 0.0778637 
1068 1 -0.0212618 0.0124573 -0.0221002 0.0331009 
265 1 -0.0830657 -0.00695916 -0.0509165 0.0976772 
1287 1 0.0401989 0.108219 0.0219577 0.117514 
3799 2 0.0760955 -0.0706428 -0.128169 0.164949 
554 1 0.0628807 -0.0804797 -0.0342314 0.107716 
1414 1 -0.0129972 0.049141 -0.0690105 0.0857101 
213 1 0.00659042 -0.00761815 0.0359886 0.0373717 
341 1 -0.0898735 -0.0422875 -0.035772 0.10557 
3682 2 -0.0280986 0.0505332 -0.05674 0.0810096 
754 1 -0.0804488 0.0555046 0.016588 0.099136 
112 1 -0.0633624 0.0452638 0.0028848 0.0779226 
1041 1 -0.0165613 -0.0386312 0.0272259 0.0500789 
119 1 0.0241029 0.0471084 0.0491158 0.0721977 
415 1 -0.0369553 0.0303488 -0.0450097 0.0656705 
995 1 -0.0689151 0.050021 0.024698 0.0886644 
4128 2 0.0156628 -0.0345984 0.160893 0.165314 
8 1 0.0355363 0.0651235 0.0055321 0.0743942 
94 1 0.0298792 -0.0502555 -0.00966148 0.0592598 
48 1 0.0404208 0.0192255 0.0396104 0.0597699 
437 1 -0.013203 -0.0596265 -0.0547001 0.0819862 
3866 2 0.0647504 0.027208 -0.0314448 0.0769524 
2206 1 0.020278 0.00160534 -0.0192218 0.0279867 
3490 2 -0.0995407 0.0178461 -0.0271324 0.104704 
3072 1 -0.0233235 -0.0766947 0.0440408 0.091464 
3002 1 0.0788132 0.121034 0.0431191 0.150731 
92 1 0.047998 0.0895041 0.105521 0.146456 
335 1 -0.0305642 0.0764256 -0.0408097 0.091872 
2192 1 -0.00396212 0.00300105 0.074837 0.0750019 
1186 1 0.0287442 -0.0149834 -0.00594562 0.0329557 
1114 1 0.0544054 0.00545927 0.0292214 0.0619971 
1821 1 -0.0536318 -0.0707049 -0.0698105 0.112912 
1922 1 0.0443356 -0.0886527 0.0438107 0.108371 
451 1 -0.111337 -0.0410298 -0.00647077 0.118833 
3960 2 -0.00257067 -0.0390767 0.0312537 0.0501038 
100 1 -0.0305542 0.0409987 -0.0904177 0.103874 
1180 1 0.0199133 -0.0495056 -0.0911461 0.105617 
165 1 0.0671307 -0.0337326 -0.00139081 0.0751422 
388 1 -0.0740488 -0.0463566 -0.056683 0.10414 
3742 2 0.0757841 -0.0564587 0.0176839 0.0961432 
323 1 -0.13131 0.148738 -0.0453153 0.203516 
288 1 -0.0764388 0.017326 -0.00142383 0.0783907 
3942 2 -0.0792243 0.0706511 0.101605 0.146941 
66 1 0.0673523 0.0272796 0.0605788 0.094606 
340 1 0.0153437 0.0309038 -0.0357351 0.0496737 
138 1 -0.0174217 -0.0156855 0.0173235 0.0291488 
879 1 -0.00649395 -0.0271631 -0.0739929 0.0790883 
3808 2 0.0727349 0.0791486 -0.0209609 0.109518 
834 1 0.0126464 0.0238388 0.0149859 0.0308674 
18 1 -0.0766911 -0.0631309 -0.0945505 0.137138 
3679 2 0.0505097 -0.0380531 -0.0385003 0.0740374 
52 1 0.0514938 -0.0619664 -0.0034955 0.0806453 
407 1 0.00504939 0.0066212 -0.0684284 0.0689331 
360 1 0.0652328 -0.050376 -0.0888328 0.121179 
2885 1 -0.100646 -0.0432717 -0.0161528 0.110739 
3526 2 -0.0206338 -0.218231 -0.062563 0.227958 
310 1 -0.078794 -0.0423176 -0.0125915 0.0903206 
326 1 0.116275 -0.0108333 0.0670742 0.134671 
227 1 -0.0235893 -0.0432716 -0.0332419 0.0594466 
2068 1 -0.13136 -0.0277275 -0.105791 0.170927 
456 1 0.0441688 -0.0130267 0.0395264 0.060687 
279 1 -0.0160368 0.0286516 0.108582 0.113437 
305 1 -0.0167428 0.0400899 -0.0536752 0.0690547 
49 1 0.000300939 0.0977904 0.0596304 0.114537 
3512 2 0.0143567 -0.106825 0.0411123 0.11536 
11 1 -0.0759006 -0.179884 0.0290832 0.197395 
189 1 -0.070922 0.108803 0.0615045 0.143704 
2271 1 -0.1172 -0.04062 -0.015686 0.125028 
319 1 -0.0958844 -0.0573273 -0.000957439 0.111719 
3566 2 0.0223483 0.0648238 -0.0637754 0.0936423 
71 1 0.024971 0.00607905 0.0431209 0.0501988 
1560 1 -0.0242493 -0.0230254 0.0509426 0.0609372 
190 1 -0.0393444 -0.01225 0.0885944 0.0977088 
123 1 0.0766124 0.00803782 0.0872471 0.116388 
27 1 -0.0389851 -0.00532605 -0.0309297 0.0500485 
162 1 -0.00280359 0.0173915 -0.0987554 0.100314 
255 1 -0.103968 0.00611303 -0.0268165 0.107544 
304 1 -0.0827126 -0.00724927 -0.06021 0.102563 
321 1 0.00983239 -0.0617147 0.146667 0.159426 
682 1 -0.0727069 0.0281359 0.00643457 0.0782261 
3469 2 0.0472037 0.0341983 -0.0857058 0.103649 
3539 2 0.0245771 0.0280057 0.105139 0.111546 
128 1 0.0572773 -0.0570355 -0.0767964 0.111496 
3562 2 0.107495 0.0242372 0.108825 0.154872 
560 1 -0.146559 -0.0548325 -0.0227709 0.158129 
212 1 -0.0541777 0.0593065 -0.0456473 0.0923914 
355 1 0.0225803 0.0601353 0.0973808 0.116658 
156 1 0.0277581 0.0800175 0.062442 0.105225 
3620 2 0.0282457 -0.0664191 -0.0115912 0.0731004 
1823 1 0.192334 -0.132324 -0.0914835 0.250741 
1805 1 -0.0809523 0.0634357 0.0930376 0.138684 
2599 1 -0.069253 0.0199127 0.0592853 0.0933126 
327 1 0.0670344 0.00581018 0.0222006 0.0708536 
137 1 0.0670135 0.0227416 0.0313565 0.077403 
2334 1 -0.00498499 0.036931 0.0428197 0.0567651 
3698 2 0.0343641 -0.0692221 0.00611013 0.0775237 
555 1 -0.025208 -0.0511284 -0.0530022 0.0778382 
4178 2 0.00789071 -0.0892907 0.0538208 0.104555 
290 1 -0.0101986 0.035864 -0.0111828 0.0389268 
284 1 0.0146978 0.0193828 -0.0473594 0.0532413 
3543 2 -0.0373937 -0.0243886 0.0347309 0.0565626 
366 1 0.0334311 -0.0359748 0.0696257 0.0852031 
55 1 -0.00719016 0.0466572 -0.0136479 0.0491412 
273 1 -0.0294838 -0.0450463 -0.0382756 0.0660567 
3468 2 0.0852861 -0.00323165 0.0665579 0.108232 
316 1 0.127627 0.00689881 0.108268 0.167506 
81 1 -0.0608346 -0.00792439 0.00863741 0.0619536 
322 1 0.0398003 -0.0453708 0.0293576 0.0671152 
239 1 -0.0066921 0.0143615 -0.0602713 0.062319 
734 1 -0.017454 -0.0711002 -0.0554721 0.0918533 
384 1 0.0838382 -0.072426 -0.0821076 0.137899 
3476 2 0.00070455 0.0992136 0.0112682 0.0998539 
311 1 -0.0343726 -0.0621651 -0.077659 0.105247 
3471 2 0.0209108 0.0340034 0.0484995 0.0628147 
1938 1 0.0553012 -0.0662565 0.00241515 0.0863364 
139 1 0.158715 -0.0335011 -0.0121068 0.162663 
727 1 0.0808284 -0.0676369 0.0405077 0.112911 
1885 1 -0.00537394 0.0325421 -0.0652009 0.0730686 
2184 1 0.151498 0.152295 -0.0862271 0.231475 
2494 1 -0.164662 -0.0431061 -0.151532 0.227889 
2091 1 -0.0253058 0.00958934 -0.0682093 0.0733815 
281 1 0.0297482 0.106759 0.117787 0.161729 
863 1 0.00934875 0.0766976 -0.0639037 0.100268 
176 1 -0.0693378 0.0586359 -0.0542998 0.105803 
3710 2 -0.00275304 0.069783 -0.0510531 0.0865082 
3572 2 -0.00851753 -0.105662 -0.085763 0.136354 
4197 2 -0.0725638 0.0707036 -0.0632868 0.119456 
343 1 -0.0367132 -0.0420761 -0.11575 0.128516 
282 1 -0.0454664 -0.0345675 -0.0355401 0.0672697 
1038 1 -0.00612071 0.0794611 0.0486087 0.0933506 
408 1 0.183823 0.0314629 -0.0135702 0.186989 
412 1 0.138581 -0.0503006 -0.0147778 0.148166 
820 1 0.125964 0.0186918 0.0660688 0.143462 
585 1 -0.0879155 -0.0348871 -0.0955724 0.134463 
3609 2 0.0700846 -0.102238 0.0204342 0.125627 
719 1 -0.0165342 0.0634526 -0.0264713 0.0707131 
608 1 0.0233647 0.0450489 0.0331394 0.0606097 
106 1 -0.00224918 0.0573539 0.0596439 0.0827764 
1047 1 -0.123521 -0.0395586 -0.0302082 0.133173 
3573 2 0.0185544 0.0401318 -0.07587 0.0878128 
751 1 -0.01358 -0.017015 -0.0768823 0.0799051 
259 1 0.0732914 -0.0413831 0.00683748 0.084445 
245 1 -0.0798118 -0.0385224 -0.027587 0.0928168 
613 1 -0.0541794 -0.045126 0.121638 0.140597 
4296 2 -0.0254283 0.0520659 0.0283637 0.0645132 
272 1 -0.109993 -0.118535 -0.0284956 0.164198 
4239 2 -0.0686443 -0.108688 -0.0721561 0.147416 
88 1 0.0836199 0.101159 0.0962136 0.162735 
4 1 0.0840804 -0.00669582 -0.0743844 0.112461 
361 1 0.0929557 0.106477 -0.148018 0.204664 
358 1 -0.0555129 -0.0171617 -0.0168741 0.0605057 
194 1 0.0163562 0.0412848 -0.0897523 0.100137 
2373 1 0.0212959 -0.00140029 -0.108562 0.11064 
1982 1 0.031519 0.0090247 0.0365736 0.0491174 
3953 2 0.00365578 0.0291847 0.0853981 0.0903214 
414 1 0.0225817 0.0227997 -0.0714282 0.0783054 
3186 1 0.095939 -0.0832049 0.00338815 0.127039 
177 1 0.0602299 -0.0463836 0.0444932 0.0880836 
1962 1 -0.0354955 0.0616683 0.111711 0.132447 
706 1 0.0134675 0.0129433 -0.0393976 0.0436013 
1544 1 0.00147146 -0.0998594 0.0590146 0.116003 
4160 2 -0.0337838 0.0339045 -0.0278356 0.0553686 
19 1 -0.0528558 0.0188662 -0.102076 0.116487 
3624 2 -0.0128823 -0.0134762 -0.0693752 0.0718364 
115 1 0.0940078 -0.0654073 -0.0486986 0.124447 
1102 1 -0.0701205 -0.025871 0.0208492 0.0775944 
2048 1 0.0734736 -0.0230934 -0.0330618 0.0838139 
649 1 0.0417246 0.113756 -0.0399586 0.127585 
113 1 0.0329978 -0.0284582 4.93409e-06 0.0435744 
1150 1 0.00735533 6.73901e-05 0.0562016 0.0566809 
620 1 -0.0143852 -0.036025 -0.0135381 0.0410854 
739 1 -0.0766785 -0.0356355 -0.000936117 0.0845598 
2412 1 0.0142986 0.0420435 -0.0131122 0.0463037 
3746 2 0.0937039 0.0327898 -0.163946 0.191661 
1225 1 -0.00190263 0.0570319 0.097788 0.11322 
241 1 0.105547 0.00464298 0.00235664 0.105675 
83 1 0.0258854 0.00486129 -0.0187271 0.032317 
1006 1 0.0404007 0.0050282 -0.00394318 0.0409029 
4046 2 -0.0626264 -0.100716 -0.037096 0.124265 
96 1 0.00300177 -0.126573 0.0164019 0.127666 
411 1 0.0849857 0.0578443 0.0815401 0.131215 
2454 1 -0.0723591 0.0155384 0.0217258 0.0771316 
404 1 -0.0841675 0.0730152 0.0758447 0.134788 
226 1 0.0479618 -0.0160216 0.0725797 0.0884582 
534 1 0.0444696 -0.0285213 0.119445 0.130607 
3538 2 -0.0184843 0.0506388 -0.0473203 0.0717298 
761 1 0.0666727 -0.0306774 0.0531208 0.090599 
246 1 0.0732828 -0.0643474 0.0241481 0.100469 
2229 1 -0.0076719 -0.128268 0.00322692 0.128538 
146 1 -0.00269659 -0.0426668 -0.05832 0.0723114 
3608 2 0.0592211 -0.00382971 0.00706684 0.0597641 
503 1 -0.0257554 -0.000558424 0.0345843 0.0431245 
505 1 0.117514 -0.0420853 0.0130657 0.125504 
1430 1 -0.0817916 -0.0450157 -0.0329318 0.0989989 
97 1 -0.0442316 0.0436493 -0.0914342 0.110553 
1723 1 0.0357501 0.00721231 -0.0889703 0.096155 
3561 2 0.0589623 0.144372 -0.0431882 0.161818 
20 1 -0.0689857 -0.0618002 -0.000199962 0.0926193 
263 1 -0.0580562 0.144333 -0.000590604 0.155573 
817 1 0.0977667 -0.0692293 0.0189556 0.121286 
1034 1 0.0228113 0.025445 0.0171489 0.0382347 
353 1 0.0411145 -0.0113785 0.147969 0.153996 
1260 1 0.0537765 0.112372 -0.0301908 0.128183 
998 1 0.033778 0.0792693 -0.0589343 0.104393 
1932 1 0.109879 -0.148828 -0.0307198 0.187528 
36 1 0.101074 -0.136368 -0.0197053 0.170882 
38 1 0.00969493 0.0106693 -0.0599612 0.0616698 
3130 1 -0.0404542 -0.0195788 -0.0537275 0.0700465 
1973 1 0.0863582 -0.00592965 0.141809 0.16614 
307 1 0.0268376 -0.0494447 -0.0460643 0.0727114 
2714 1 0.0817498 0.035629 0.0204702 0.0914958 
28 1 0.0674244 0.0290035 0.00534449 0.0735923 
1937 1 0.00136854 0.039636 -0.0494792 0.063412 
562 1 -0.077925 -0.115827 0.00407811 0.139659 
3011 1 -0.0520776 -0.000957531 -0.00226692 0.0521358 
410 1 0.0849865 -0.0577129 0.0357521 0.108774 
693 1 0.0713564 0.0994817 0.126733 0.176209 
367 1 -0.0173366 0.00387133 0.00330836 0.018069 
318 1 0.0575322 0.0356496 -0.0770767 0.102575 
735 1 0.113882 -0.0170774 0.0198991 0.116862 
600 1 -0.0172093 0.0599323 0.0283268 0.0684869 
3590 2 -0.0301154 0.0625072 -0.0095359 0.0700359 
3636 2 0.0483325 -0.0945569 0.0547696 0.119485 
26 1 -0.108871 0.065583 0.06379 0.142208 
1199 1 0.0334924 0.0286567 -0.0705307 0.0831716 
614 1 -0.0118689 -0.0364032 -0.0265954 0.0466195 
459 1 0.0126228 -0.0827111 -0.0614942 0.103836 
3645 2 0.07302 0.112258 0.0575622 0.145764 
574 1 0.0505343 -0.00439439 0.0477469 0.069662 
780 1 0.112504 -0.00478384 -0.00203272 0.112624 
161 1 -0.0907944 -0.00385785 0.0150336 0.0921114 
309 1 0.117022 0.0780685 0.00839388 0.140923 
365 1 0.0249319 -0.146806 -0.0596246 0.160401 
191 1 -0.0666909 0.078636 0.00893672 0.103495 
1766 1 -0.0399243 0.0443565 -0.0414676 0.0726706 
2775 1 0.0482445 -0.0705566 -0.0688623 0.109762 
1030 1 0.107736 -0.0746038 0.0155641 0.131966 
1505 1 0.129146 0.147677 0.11772 0.22879 
3872 2 -0.0109221 0.0302094 -0.00476394 0.0324745 
580 1 -0.0380531 -0.0395788 -0.00212736 0.0549459 
2054 1 -0.0955922 -0.0742212 -0.0562583 0.13346 
2064 1 0.103097 0.00897681 -0.0586055 0.118929 
529 1 -0.0116075 0.0473198 -0.0863407 0.0991394 
402 1 -0.0188894 0.053627 0.0246947 0.0619878 
124 1 -0.015747 -0.0987081 0.0482166 0.110978 
744 1 0.104966 0.00146953 0.0276966 0.108569 
185 1 0.0777393 -0.036733 0.0941588 0.127509 
315 1 -0.0300721 -0.0445885 -0.0463091 0.0709718 
655 1 -0.0293077 -0.0389087 0.137288 0.145674 
765 1 -0.0160834 0.0705571 0.0245141 0.0764062 
140 1 0.0295664 0.0842276 -0.0931219 0.128997 
59 1 -0.0433317 -0.00759524 0.0536354 0.0693692 
54 1 0.00436097 0.0200385 0.0166868 0.0264388 
3506 2 -0.0196974 0.101766 -0.0836923 0.133224 
666 1 -0.0379258 -0.128011 0.0695916 0.15056 
43 1 0.0743132 0.0983373 0.0780378 0.145885 
334 1 -0.0227781 -0.0149689 0.0130163 0.0302048 
267 1 0.140057 0.0337308 -0.0495385 0.152341 
99 1 0.0641639 0.0923329 0.0831915 0.139868 
1189 1 -0.0905925 -0.0407565 -0.151628 0.181271 
201 1 -0.0187913 -0.0908386 -0.0539807 0.107325 
380 1 0.0214936 0.124123 -0.159632 0.20335 
1777 1 0.0154557 -0.0171207 -0.047133 0.0524739 
2597 1 0.244588 -0.029172 -0.0214172 0.247251 
2484 1 0.124372 -0.0511376 -0.0855435 0.159377 
308 1 -0.0268087 -0.0155828 -0.0410035 0.0514083 
3918 2 -0.0415274 0.0868427 0.0492117 0.108111 
89 1 -0.081497 0.0613792 -0.0308551 0.106589 
300 1 -0.00974937 0.0103813 0.0023268 0.0144304 
3582 2 0.0242227 0.0308186 0.0101363 0.0404879 
712 1 -0.0830446 0.0556883 0.053131 0.113228 
3836 2 -0.0156257 0.048186 -0.0672625 0.0842039 
268 1 0.0030883 -0.0138888 0.00323418 0.014591 
788 1 -0.0161798 0.087649 -0.0981965 0.132615 
4091 2 0.000227751 0.150256 -0.0057437 0.150366 
371 1 0.0353971 0.0767054 0.103171 0.133345 
3505 2 0.0345163 -0.0198357 0.0612915 0.0730854 
266 1 0.0870594 -0.0729505 -0.0612839 0.129061 
3571 2 -0.023647 -0.018182 0.0628507 0.06957 
637 1 -0.00646634 -0.000697209 -0.0810422 0.0813028 
157 1 -0.0380526 -0.00135051 0.0640061 0.0744755 
257 1 0.02882 0.0239344 0.0119848 0.0393329 
571 1 -0.0351458 0.0343866 -0.029203 0.0571881 
665 1 -0.14074 -0.00895853 0.164826 0.216923 
448 1 -0.0983995 -0.069357 0.0276699 0.123525 
827 1 0.0917104 0.100231 0.00253605 0.13588 
3475 2 0.0426019 0.0161293 0.0470305 0.0654748 
73 1 -0.0300329 0.0888846 0.00133054 0.0938308 
373 1 0.0902571 -0.0185674 0.0867094 0.126529 
247 1 0.0222268 -0.0326918 -0.050026 0.0637604 
107 1 0.0624418 0.0265412 -0.0167272 0.06988 
675 1 -0.0435207 0.0736888 -0.105789 0.136072 
434 1 -0.0136274 0.0631205 0.0186285 0.0672081 
159 1 -0.0647373 0.0462572 -0.0175719 0.0814826 
32 1 0.0633634 0.0917657 0.0104215 0.112002 
3579 2 0.0608269 -0.0681108 -0.0596793 0.10909 
394 1 -0.0441683 0.0150436 0.0530726 0.0706672 
260 1 -0.039606 0.0489136 0.0144078 0.0645659 
3972 2 -0.0590395 0.0352187 0.0954623 0.11764 
1801 1 -0.0658042 0.0276141 0.0683782 0.0988348 
2122 1 -0.025762 0.00404504 0.121924 0.124682 
1966 1 -0.00366323 -0.0580643 -0.0841779 0.102327 
291 1 -0.00895151 0.0172653 0.0260074 0.0324746 
2047 1 0.0782939 0.0208803 0.0642803 0.103431 
1899 1 0.0114955 0.0796133 0.00649246 0.0807005 
622 1 -0.0546764 0.0594811 0.00474191 0.0809321 
1993 1 -0.0216186 -0.00500186 -0.0140036 0.026239 
62 1 0.0288446 0.0688341 0.0508191 0.0902924 
2187 1 -0.0332203 -0.0106515 -0.10565 0.111261 
4318 2 0.0657179 -0.0146081 -0.00325003 0.0674003 
44 1 -0.0175313 -0.0275267 0.078095 0.0846398 
824 1 0.0224702 -0.00975537 0.0523232 0.0577737 
1282 1 -0.00986766 0.00774061 0.1086 0.109322 
3626 2 0.0931655 0.0701644 -0.0231585 0.118908 
819 1 0.0382539 0.0533199 0.0853262 0.107643 
773 1 -0.114457 -0.125673 0.0375406 0.174079 
270 1 -0.00434218 -0.0625235 0.00066631 0.0626776 
14 1 -0.0823645 -0.0102258 -0.0417129 0.0928894 
3540 2 0.0555735 -0.0105773 -0.0156773 0.0587033 
997 1 0.087184 -0.0659029 -0.0260288 0.112347 
4275 2 -0.0297558 -0.0723516 -0.11206 0.136666 
164 1 0.0563088 0.0612053 0.154819 0.175743 
234 1 0.00512373 -0.0481427 0.0760901 0.0901869 
1125 1 -0.0109641 0.0352873 -0.0723854 0.0812714 
3985 2 -0.0722575 -0.010016 0.0774811 0.106418 
328 1 0.0315464 0.0118648 -0.0462438 0.0572227 
3474 2 0.00549985 0.00718646 -0.044559 0.0454687 
543 1 -0.0832015 -0.000489826 -0.011554 0.0840013 
293 1 0.0984985 -0.0580301 0.0599768 0.129099 
3458 2 0.0778466 -0.0495122 0.0835761 0.124485 
390 1 -0.0129933 -0.0343274 -0.0368039 0.0519781 
3706 2 0.104802 -0.158097 -0.0732822 0.203343 
2169 1 0.0823975 0.0997368 -0.0136621 0.13009 
1786 1 -0.00356426 0.0159459 -0.0820669 0.0836777 
1478 1 -0.00757242 0.0136168 0.148925 0.149738 
87 1 0.0200889 -0.0148453 -0.0333068 0.0416328 
4090 2 -0.0120344 -0.0494387 0.0408089 0.0652256 
142 1 -0.0105671 0.0294466 0.0464234 0.0559812 
1650 1 -0.0797767 -0.0695947 -0.0874315 0.137303 
153 1 0.0157508 0.0321649 0.00935474 0.0370159 
374 1 0.062842 -0.0168525 -0.0430753 0.0780295 
602 1 0.0131368 -0.0750076 -0.062618 0.0985887 
1277 1 -0.060338 0.0159786 0.024608 0.0670935 
76 1 -0.0040611 -0.0529055 0.101397 0.114442 
1370 1 0.0610661 -0.0283581 0.0994585 0.120105 
221 1 -0.0142117 0.0763441 -0.0316543 0.0838593 
604 1 -0.0260067 0.0587164 0.102881 0.121278 
1161 1 -0.0735917 -0.045562 0.0014282 0.0865661 
1718 1 -0.131683 0.0272872 -0.126281 0.184477 
178 1 0.00543515 -0.199197 -0.0144124 0.199791 
295 1 -0.119275 -0.0597561 0.0179917 0.134615 
1472 1 -0.0783581 -0.0343251 0.0167641 0.0871736 
4159 2 -0.00805135 -0.0367857 -0.0312125 0.0489105 
3467 2 0.11131 -0.0159078 0.016447 0.113637 
3531 2 -0.0118271 -0.063645 0.124466 0.140294 
2720 1 -0.0866398 0.0854568 -0.0628765 0.136977 
1851 1 -0.0111722 0.0115642 -0.00340765 0.0164365 
732 1 -0.0314771 -0.0954223 0.0194673 0.102348 
4009 2 -0.0207377 0.129976 -0.01821 0.132874 
3878 2 0.036392 0.0365361 -0.0313328 0.0603408 
3185 1 -0.174109 -0.0398117 0.0356502 0.182126 
110 1 -0.0514552 -0.0151256 0.0375646 0.0654791 
2963 1 -0.0396587 -0.00494646 -0.0348502 0.0530266 
2608 1 -0.0440816 0.00928406 -0.0252079 0.0516219 
3301 1 0.00837978 0.00781583 0.0607658 0.0618368 
3759 2 -0.0300271 -0.0260304 -0.022367 0.0456015 
4171 2 -0.0490857 0.0215166 0.00546343 0.0538722 
2118 1 0.00130574 0.0762449 -0.031806 0.0826233 
1742 1 0.0411112 -0.0539813 0.030075 0.0742201 
642 1 0.0312726 -0.159857 0.0593242 0.173354 
3366 1 -0.0408356 0.0193254 0.101604 0.111195 
144 1 0.150209 0.159875 0.0233678 0.22061 
681 1 0.060114 -0.0447444 -0.107043 0.130668 
1666 1 0.0999562 -0.0596177 -0.0302154 0.120243 
183 1 -0.112896 -0.083903 -0.0379784 0.145697 
694 1 -0.15993 0.00968145 0.0734577 0.17626 
444 1 -0.0388261 0.0577567 -0.123173 0.141474 
869 1 -0.0449862 -0.137244 0.121606 0.188806 
920 1 -0.0106181 -0.106903 -0.0411156 0.115028 
53 1 0.0501466 -0.00289427 0.0395771 0.0639485 
1450 1 -0.205519 -0.049898 -0.0654224 0.221377 
1579 1 0.1129 -0.102951 0.0693597 0.167798 
51 1 0.116037 0.0334584 -0.00335285 0.120811 
4187 2 -0.113453 -0.0747107 -0.181907 0.227032 
1694 1 -0.00815803 -0.116944 0.137064 0.180358 
1590 1 0.0275918 0.0216965 -0.067282 0.0758874 
2005 1 -0.0103762 -0.0181292 0.129506 0.131179 
736 1 -0.0743682 -0.00286755 -0.043157 0.0860312 
363 1 0.0751077 -0.00031948 0.0296571 0.0807516 
230 1 0.0240085 0.0331176 0.143603 0.149315 
2538 1 0.0336482 -0.0196905 -0.0621923 0.0734016 
357 1 -0.0792282 0.00319417 -0.00333799 0.0793628 
3849 2 0.139448 -0.0352425 -0.0461277 0.151048 
4102 2 0.034885 -0.119125 0.0435632 0.131551 
1032 1 0.0742124 -0.00142164 0.0306189 0.0802933 
78 1 -0.00351668 0.0509746 -0.0376887 0.0634918 
564 1 0.18252 -0.0195267 0.112582 0.215336 
797 1 0.154312 -0.057442 -0.0548591 0.173555 
1476 1 0.180744 -0.0218024 -0.0294237 0.184417 
872 1 -0.106331 -0.0273962 -0.0877873 0.140582 
475 1 -0.046862 -0.0113747 0.0296146 0.0565903 
4119 2 0.178824 -0.0981346 -0.0886689 0.22242 
576 1 -0.155587 0.0269938 0.0586027 0.168434 
507 1 0.0638978 -0.063268 0.0185043 0.0918051 
248 1 0.0797602 -0.0496246 -0.0121332 0.0947181 
3597 2 -0.0691659 0.0565912 0.075534 0.117012 
539 1 0.0143218 0.00682852 0.0793538 0.0809244 
63 1 0.0694448 0.0222634 0.068771 0.100238 
57 1 -0.0742042 -0.00961511 0.0094218 0.0754155 
854 1 -0.00913254 0.0539419 0.0140849 0.0564935 
668 1 0.115886 -0.109905 -0.124087 0.202253 
385 1 -0.105762 -0.215952 0.0286937 0.242165 
752 1 0.0351725 0.0263752 -0.00825975 0.0447323 
3650 2 -0.00737602 0.126842 -0.017768 0.128293 
3736 2 -0.0856212 -0.138795 -0.0136077 0.163646 
254 1 -0.104171 -0.137589 -0.00983201 0.172855 
3637 2 -0.012934 0.0104042 0.102584 0.103918 
731 1 0.022529 0.00332865 -0.0530223 0.0577061 
2304 1 0.110409 -0.0900815 -0.0636211 0.156053 
610 1 -0.129649 -0.00465357 -0.1115 0.171063 
292 1 -0.107618 0.0144732 0.0136723 0.109445 
313 1 -0.108817 0.00513456 0.042989 0.117114 
2133 1 0.00729411 -0.13386 0.00316267 0.134096 
646 1 -0.0979488 -0.0182477 -0.0653028 0.119128 
271 1 -0.00130089 0.0812287 0.073907 0.109827 
584 1 -0.0446472 0.076894 -0.0999089 0.133745 
3649 2 -0.0977225 0.0386512 0.0368163 0.111351 
1148 1 -0.0346973 0.100416 0.130114 0.167979 