ITEM: TIMESTEP
42
ITEM: NUMBER OF ATOMS
4320
ITEM: BOX BOUNDS pp pp pp
0.0000000000000000e+00 1.9309999999999999e+01
0.0000000000000000e+00 1.9309999999999999e+01
0.0000000000000000e+00 9.6549999999999994e+00
ITEM: ATOMS id type c_displacement[1] c_displacement[2] c_displacement[3] c_displacement[4] 
4012 2 0.0247943 -0.0711451 0.00722712 0.0756876 
2361 1 -0.0272668 -0.0560409 -0.0538258 0.0823486 
79 1 -0.0619881 -0.0769723 0.0288452 0.102953 
781 1 0.0576111 -0.0297993 0.057991 0.0870057 
461 1 -0.00249363 0.00450838 -0.0373927 0.0377459 
3704 2 -0.00314111 -0.0664616 0.0201397 0.069517 
629 1 -0.0639851 0.0607908 0.0359879 0.095314 
1571 1 0.00664554 -0.000448647 -0.0286217 0.0293865 
58 1 0.107727 0.04476 0.132476 0.176517 
2372 1 -0.053278 -0.0424542 -0.0114253 0.0690756 
372 1 -0.00410204 -0.0242248 -0.0183567 0.0306698 
3504 2 -0.00877069 -0.0774253 0.0357854 0.0857449 
4130 2 0.00751831 -0.0221388 -0.0663714 0.0703691 
1262 1 0.0474315 0.092474 -0.0725108 0.126724 
907 1 -0.0875644 -0.0600345 -0.135164 0.171875 
3659 2 0.0164672 0.169445 -0.0917424 0.19339 
1298 1 0.0727147 0.0524785 -0.0928543 0.129087 
1716 1 0.019011 0.0889905 -0.0582044 0.108021 
1182 1 0.0249531 0.0140914 -0.00033555 0.0286589 
683 1 -0.0121502 -0.0373419 0.0552156 0.0677555 
1958 1 0.0188063 -0.0672294 0.0579292 0.0907153 
1554 1 0.0188742 -0.0715591 -0.0642037 0.0979748 
1037 1 -0.0220235 -0.162665 0.0194977 0.165303 
749 1 -0.101155 -0.062316 0.0485557 0.128348 
3628 2 0.0552472 0.0526858 0.0182431 0.0784911 
946 1 -0.0367086 -0.00184348 -0.0601478 0.0704889 
2232 1 0.0121193 -0.0326117 -0.089334 0.0958695 
7 1 0.0385872 0.0150012 0.0163132 0.0444987 
501 1 0.00858605 0.081713 -0.0820449 0.116112 
179 1 -0.0260773 -0.0286666 -0.0944959 0.102134 
714 1 -0.0701919 -0.0428259 0.11748 0.143396 
4166 2 0.00997857 -0.0589806 -0.0119567 0.061002 
276 1 -0.0287072 0.0287624 0.0992686 0.107264 
767 1 -0.0632083 -0.0235508 0.0479485 0.0827586 
3890 2 -0.163758 -0.0442462 -0.108472 0.201347 
6 1 0.00674172 0.113597 -0.0221245 0.115928 
2086 1 -0.0159542 0.00238685 0.0458706 0.0486246 
224 1 0.0314247 -0.0315267 0.00274647 0.044598 
3660 2 0.0352648 0.0291994 0.0396023 0.0605355 
596 1 -0.0767051 -0.0104799 -0.0145623 0.0787753 
1214 1 0.00516054 -0.0600562 -0.0625711 0.0868823 
3686 2 0.0374268 0.0239864 0.0187185 0.0482337 
427 1 -0.0686016 0.0765663 0.0863329 0.134246 
350 1 0.0113407 0.0564831 -0.00509196 0.0578349 
85 1 -0.0299801 0.00331172 0.0148513 0.0336205 
598 1 -0.0313041 -0.0346644 0.112548 0.121855 
3554 2 0.0172926 -0.0282981 -0.032949 0.0467489 
29 1 -0.0500633 0.06086 0.0340832 0.08586 
464 1 -0.0217507 0.0266573 -0.0588823 0.068197 
3619 2 -0.039972 0.0406904 0.0819596 0.0998541 
12 1 0.0181558 -0.161848 0.00976658 0.163156 
364 1 -0.11032 0.0167973 -0.078507 0.136441 
1849 1 -0.0778477 -0.0856416 -0.0183312 0.117178 
3663 2 -0.143875 0.0507066 -0.0539519 0.161808 
3517 2 0.0309793 0.00911017 0.0944079 0.0997775 
25 1 0.148263 -0.0206943 -0.0407602 0.15515 
4163 2 0.010523 0.0106818 -0.0233356 0.0277377 
399 1 0.0170712 0.0164177 -0.0215419 0.0320159 
4265 2 -0.0487576 0.0628201 0.0312044 0.0854248 
527 1 0.0228923 -0.0101788 -0.0363656 0.0441602 
200 1 0.0861369 0.0348332 0.0624381 0.111944 
1951 1 0.116954 0.0960083 0.0465788 0.158321 
644 1 0.033595 -0.0457163 0.0574999 0.0807765 
193 1 0.0253043 0.0878596 -0.000148067 0.0914311 
550 1 0.00521527 -0.0336685 -0.0289701 0.0447217 
69 1 0.0147891 -0.0150326 0.0032822 0.0213417 
842 1 -0.0793794 0.0375244 -0.0682685 0.111219 
578 1 -0.0298697 0.0150181 0.0103011 0.0349836 
172 1 -0.00994606 -0.0704471 0.0224815 0.0746132 
381 1 -0.00870951 0.0381224 -0.0764919 0.085908 
3524 2 0.0604067 -0.102287 0.131159 0.176959 
688 1 -0.0817654 0.0918434 -0.0201877 0.124613 
3651 2 -0.0340706 0.0515185 0.0249263 0.0666054 
2367 1 0.0458163 0.0217665 -0.00796891 0.051346 
1244 1 -0.077006 0.0043152 0.0207331 0.0798649 
796 1 -0.0921862 0.0941569 -0.0339059 0.136064 
691 1 0.0555364 -0.013685 0.0181094 0.059996 
421 1 0.0355766 0.0329602 0.0934422 0.105278 
597 1 -0.0432876 0.0594556 -0.0138539 0.0748379 
3617 2 0.023876 0.0100115 -0.0509821 0.0571793 
120 1 0.0734358 0.0805817 0.0448429 0.117886 
769 1 -0.0496224 0.000795525 0.05447 0.0736885 
2142 1 -0.0111669 0.0282627 -0.0263255 0.0402059 
3611 2 0.135563 0.0504529 0.126706 0.192294 
1915 1 -0.0222718 0.0447836 0.0240037 0.0554778 
2140 1 -0.0123285 -0.00291302 0.0993059 0.100111 
3828 2 0.105672 0.0274535 0.0433011 0.117453 
3204 1 0.00581416 0.0748948 0.0349908 0.0828697 
175 1 0.0901177 0.0514859 -0.0357857 0.109784 
2011 1 0.0933322 0.0268432 -0.0410383 0.105431 
75 1 8.23694e-07 0.0894321 -0.00897914 0.0898818 
547 1 -0.0286199 -0.0208307 -0.0712555 0.0795635 
4316 2 -0.0551791 0.0340856 -0.0289553 0.0710279 
559 1 0.0379578 0.0468635 -0.0201004 0.0635689 
717 1 -0.00437555 0.0699303 -0.0411372 0.0812506 
242 1 0.00858328 -0.0312438 0.0626597 0.0705413 
3510 2 -0.0630786 0.0289341 0.0751132 0.102265 
130 1 0.0818028 -0.0386739 0.114832 0.146197 
143 1 -0.0178356 0.0493545 -0.065762 0.0841345 
202 1 -0.128853 -0.0540879 -0.0580601 0.151326 
182 1 -0.117338 0.0433518 -0.00860088 0.125386 
84 1 0.0387422 -0.0470295 -0.0479846 0.0775581 
3633 2 0.0203137 -0.0676376 0.0477946 0.085275 
35 1 -0.132378 -0.0112809 0.110079 0.172536 
3612 2 0.0265111 0.0408269 -0.0644962 0.0808049 
40 1 0.137327 0.085245 0.0691756 0.175815 
4005 2 0.0529829 -0.0757749 0.0267393 0.0962497 
718 1 -0.0488322 0.00902264 -0.0506825 0.0709557 
134 1 -0.0230824 -0.0228255 0.081007 0.0872693 
511 1 -0.0452252 -0.0666319 0.0404366 0.0901125 
757 1 0.0535647 0.137561 0.00147935 0.147629 
3555 2 -0.0629724 0.0482148 0.0319407 0.0855009 
3481 2 -0.0298847 0.00189637 -0.0399882 0.0499575 
135 1 0.0136191 -0.0472349 -0.0288473 0.0569981 
369 1 0.0365376 -0.0333286 0.107196 0.118054 
2148 1 -0.0823805 -0.0474171 0.0031583 0.0951047 
3462 2 0.0432028 -0.0701125 -0.147409 0.168854 
1914 1 -0.00666829 0.0404019 0.0131158 0.0429977 
3661 2 0.0716177 -0.103278 0.0180692 0.126972 
1871 1 0.0177273 0.0278086 -0.0394329 0.0514056 
320 1 -0.0408723 -0.0220921 -0.0403763 0.0615536 
582 1 -0.0058116 -0.101457 -0.0220806 0.103994 
766 1 -0.029654 0.0137515 0.00288811 0.0328147 
3552 2 -0.00731936 -0.0463657 0.0115399 0.0483376 
2290 1 -0.043835 0.0347934 0.0354753 0.0662615 
1794 1 0.0129597 0.02201 0.0596678 0.0649049 
753 1 -0.0680632 0.0398194 0.033616 0.0857218 
396 1 -0.00366119 -0.0175069 0.113684 0.115082 
496 1 -0.00559529 0.0254025 -0.0842586 0.0881822 
480 1 -0.04219 -0.0529056 0.0721594 0.0989241 
253 1 0.047713 -0.0012099 -0.00443898 0.0479343 
4033 2 -0.0111138 0.0234071 -0.0487222 0.0551839 
347 1 -0.0592754 0.0255792 0.0189091 0.0672713 
586 1 -0.0828081 0.0421501 -0.10668 0.141472 
3671 2 0.0810551 0.0117216 -0.0791634 0.113904 
37 1 -0.00383241 -0.0861927 0.00814102 0.0866611 
782 1 0.0290298 -0.10436 -0.0169403 0.109639 
481 1 0.062673 -0.00671775 -0.0717661 0.0955165 
392 1 -0.0473592 0.0436371 -0.0948518 0.114647 
333 1 0.0455189 -0.046185 -0.0189259 0.0675516 
342 1 -0.0113113 -0.014186 -0.0340455 0.0385783 
1179 1 -0.00878479 -0.000306239 -0.0582599 0.0589193 
517 1 -0.00610802 -0.0709283 -0.0279297 0.0764735 
1824 1 0.0614075 -0.0433405 0.111153 0.13418 
34 1 0.0393248 0.016011 0.0348245 0.054914 
398 1 -0.0036799 -0.0349405 -0.0607672 0.0701928 
170 1 -0.0649998 -0.059146 -0.0499921 0.101106 
235 1 0.0277241 -0.117937 0.0563584 0.133619 
3852 2 -0.0215213 -0.0264099 -0.0109242 0.0357769 
816 1 0.0394479 -0.013667 -0.0428551 0.0598288 
3931 2 -0.107797 -0.1082 0.107635 0.186849 
274 1 -0.0280534 -0.0450497 -0.0126494 0.0545571 
30 1 0.011872 -0.00862612 -0.0297114 0.0331379 
2066 1 0.068579 -0.0432806 0.113421 0.139429 
1082 1 0.00747804 -0.057868 0.060871 0.0843202 
1372 1 0.00590578 -0.0413661 0.0916774 0.100751 
1265 1 0.0834634 -0.0337298 -0.0849632 0.123784 
601 1 0.0142477 0.0637322 0.0338029 0.0735352 
540 1 0.00764462 0.00477413 0.0148043 0.017332 
589 1 -0.0412832 0.131786 0.0781362 0.158673 
958 1 0.0945757 -0.00531118 -0.0152653 0.0959469 
504 1 -0.0799325 0.038767 -0.0200568 0.0910734 
1349 1 -0.0545194 0.0307226 -0.0498644 0.0800169 
9 1 0.0101956 -0.105805 0.0322161 0.11107 
149 1 0.00187314 0.0704311 -0.00490958 0.0706269 
163 1 0.0263992 -0.0926837 0.014798 0.0974996 
4247 2 0.0129495 -0.0525472 -0.0512435 0.0745305 
1584 1 0.148053 -0.0120886 -0.0962982 0.177029 
3570 2 -0.027166 -0.0762418 0.00504 0.0810938 
237 1 0.0192867 0.0492702 0.0353545 0.0636355 
490 1 -0.0154616 -0.060315 -0.0145125 0.0639341 
50 1 -0.0468253 -0.0583321 0.0290551 0.0802462 
152 1 0.0485996 0.00942036 -0.0337918 0.0599379 
3652 2 -0.0181037 -0.0238639 0.00265764 0.0300714 
3823 2 0.0237457 0.0827131 -0.101045 0.132723 
902 1 0.0304546 0.0620133 -0.0199576 0.0719128 
3574 2 -0.0353685 0.0555105 -0.0591556 0.0884971 
770 1 -0.0116324 -0.0634308 -0.0327815 0.0723422 
154 1 -0.00887382 -0.0302435 -0.0145109 0.0346984 
116 1 0.0872237 -0.0574853 0.0378 0.111092 
710 1 -0.0815726 -0.136126 -0.0700234 0.173458 
1956 1 -0.0150082 0.0392788 -0.0500522 0.0653705 
1810 1 -0.109727 -0.0374942 0.0784043 0.139975 
2072 1 -0.0503658 -0.0294111 -0.00323874 0.0584142 
1649 1 -0.0362211 0.0157871 -0.0520418 0.0653418 
186 1 -0.0454804 0.0110399 0.0762072 0.0894309 
1063 1 -0.0436481 0.0723998 -0.168534 0.188549 
432 1 -0.102767 0.075394 -0.113016 0.170346 
2495 1 -0.0730839 -0.103501 0.0742746 0.146869 
3896 2 0.00600809 -0.0121201 -0.0567887 0.0583776 
1071 1 -0.00845443 -0.033653 -0.0441851 0.0561811 
913 1 0.0579194 -0.0624468 0.0322348 0.0910678 
1068 1 0.0191883 0.0187567 -0.00983694 0.0285792 
265 1 -0.0699428 0.0114602 -0.0360921 0.079536 
1287 1 0.0294812 0.107481 0.0129263 0.112198 
3799 2 0.0506915 -0.0539652 -0.105132 0.128587 
554 1 0.0434675 -0.0611827 -0.0598945 0.0960214 
1414 1 -0.0225555 0.0411417 -0.0726009 0.0864424 
213 1 0.00142016 -0.0228749 0.0172356 0.0286765 
341 1 -0.0700373 -0.0382735 -0.0365514 0.0877844 
3682 2 -0.0382009 0.0268152 -0.04934 0.0679176 
754 1 -0.0649499 0.0793934 0.0038217 0.102647 
112 1 -0.0663853 0.0461778 0.00454833 0.0809943 
1041 1 -0.0191791 -0.0624878 0.0286505 0.0713681 
119 1 0.0130481 0.0138422 0.0696389 0.0721903 
415 1 -0.00759628 0.0467406 -0.0418712 0.0632106 
995 1 -0.059468 0.0417181 0.0240485 0.0765191 
4128 2 -0.0128399 -0.0388689 0.128825 0.135173 
8 1 0.0518819 0.0600021 -0.000160998 0.0793222 
94 1 0.0146595 -0.0655359 -0.00351791 0.0672475 
48 1 0.029622 0.0261786 0.0184579 0.0436288 
3998 2 0.0125494 0.0349786 0.0647988 0.0746985 
3866 2 0.0544903 0.0300618 -0.0178682 0.064747 
2206 1 0.0200798 -0.00475143 -0.020303 0.028948 
3490 2 -0.0898656 0.00697438 -0.0142368 0.0912532 
3072 1 -0.00731828 -0.0577569 0.0486839 0.0758916 
3002 1 0.0784182 0.0811244 0.0380884 0.119085 
92 1 0.0347237 0.0892268 0.103344 0.14088 
335 1 -0.0416862 0.0751488 -0.0477265 0.0983001 
4034 2 -0.157265 -0.142981 0.0443619 0.217126 
1186 1 0.0223004 -0.0013612 0.00462036 0.0228146 
1114 1 0.0662874 0.0300661 0.0304484 0.0788993 
1821 1 -0.0336784 -0.0608907 -0.0647796 0.09507 
1922 1 0.0223179 -0.0845966 0.0273542 0.0916675 
451 1 -0.0942883 -0.0486739 -0.00331625 0.106162 
3960 2 0.00216614 -0.0346684 0.0223582 0.0413096 
100 1 -0.0260677 0.0480894 -0.0765232 0.0940634 
1180 1 0.00427569 -0.0473681 -0.0763981 0.0899927 
165 1 0.066914 -0.0277796 -0.000239341 0.0724516 
388 1 -0.0709347 -0.0568114 -0.0405005 0.0994966 
3742 2 0.0792744 -0.0466916 0.0258864 0.0955753 
323 1 -0.109015 0.12849 -0.0666457 0.181206 
288 1 -0.0576849 0.0142219 0.00717308 0.0598436 
3942 2 -0.0608404 0.0551286 0.0922993 0.123531 
66 1 0.0597022 0.0337517 0.0541428 0.0873783 
340 1 -0.00798897 0.00185103 -0.0200413 0.0216542 
138 1 -0.0225578 -0.00362529 0.0164297 0.0281413 
879 1 0.00686106 -0.00994472 -0.0710225 0.0720428 
3808 2 0.0650726 0.032798 -0.00979833 0.0735266 
834 1 -0.00931047 0.0198577 0.0196179 0.0294257 
18 1 -0.0661914 -0.0590639 -0.0944267 0.129562 
3679 2 0.0295515 -0.0293478 -0.0218069 0.047012 
52 1 0.0563792 -0.0278804 -0.0104442 0.0637575 
407 1 -0.0223138 -0.00683959 -0.0701214 0.0739033 
360 1 0.0555928 -0.0449939 -0.101838 0.124443 
2885 1 -0.0999514 -0.0602279 -0.0233136 0.119001 
3526 2 -0.0111322 -0.177663 -0.0515357 0.185321 
310 1 -0.0712251 -0.0345976 0.00280326 0.079233 
326 1 0.0952829 -0.00817444 0.0534934 0.109577 
227 1 -0.0158333 -0.0297886 -0.0224157 0.0405033 
2068 1 -0.104396 -0.0434253 -0.0955575 0.148039 
456 1 0.0265287 -0.00719684 0.0321506 0.0422992 
279 1 -0.0235962 0.0213109 0.085899 0.0915946 
305 1 -0.0518159 0.0248668 -0.0399724 0.0700074 
49 1 0.00288345 0.0827412 0.0528974 0.0982475 
3512 2 0.005962 -0.0876221 0.0431141 0.0978366 
11 1 -0.0599434 -0.149348 0.0202417 0.162197 
189 1 -0.0433859 0.0890924 0.0658663 0.118988 
2271 1 -0.0985621 -0.0303525 -0.0153956 0.104273 
319 1 -0.0830002 -0.049984 -0.00690358 0.0971344 
3566 2 0.00419928 0.0619157 -0.0540504 0.082296 
71 1 0.00488693 0.0137875 0.0229876 0.0272471 
1560 1 -0.022722 -0.037403 0.0479902 0.0649487 
190 1 -0.0142027 -0.0288761 0.0642427 0.0718517 
123 1 0.067257 0.0137626 0.065838 0.0951186 
27 1 -0.0400902 0.000993482 -0.0325911 0.0516758 
162 1 -0.0136364 -0.000720287 -0.0963686 0.0973312 
255 1 -0.0878908 0.0118313 -0.0342938 0.0950833 
304 1 -0.0833615 -0.000979314 -0.0471454 0.0957747 
321 1 0.00410656 -0.0698723 0.137821 0.154575 
682 1 -0.0499529 0.0384711 0.0041701 0.0631879 
3469 2 0.0632374 0.0529146 -0.0855284 0.118802 
3539 2 0.0288836 0.0370583 0.0855898 0.0976381 
128 1 0.0607379 -0.0409917 -0.0555698 0.0919642 
3562 2 0.101077 0.0284885 0.076472 0.129908 
560 1 -0.116021 -0.0524756 0.000165883 0.127337 
212 1 -0.0364567 0.0449755 -0.0222713 0.0620314 
355 1 0.0207522 0.0630139 0.105379 0.124523 
156 1 0.0525514 0.0631694 0.0660125 0.105402 
3620 2 0.00485078 -0.0505192 -0.00991255 0.0517105 
1823 1 0.159436 -0.116143 -0.0873106 0.215714 
1805 1 -0.0356979 0.0725484 0.0882535 0.119692 
2599 1 -0.0492763 0.0114551 0.0242781 0.0561142 
327 1 0.0342905 0.00671069 0.00780876 0.0358029 
137 1 0.0584986 0.00414241 0.0539518 0.0796872 
2334 1 -0.00987977 0.0443013 0.0387497 0.0596805 
3698 2 0.036944 -0.0712462 0.0148938 0.0816253 
555 1 -0.00988109 -0.0461051 -0.0503522 0.0689831 
4178 2 0.0270413 -0.0665989 0.0451796 0.084899 
290 1 -0.0101806 0.0525804 -0.0148301 0.0555722 
284 1 -0.00745443 0.0111545 -0.0545167 0.0561432 
3543 2 -0.000694919 -0.0126191 0.0372278 0.0393146 
366 1 0.0311712 -0.0436778 0.0437424 0.06923 
55 1 -0.0225621 0.0392576 -0.0120624 0.0468584 
273 1 -0.0209252 -0.0665323 -0.0136263 0.071064 
3468 2 0.0637021 0.0154493 0.0422661 0.077994 
316 1 0.0983209 -0.0208877 0.10508 0.145413 
81 1 -0.0626631 0.0133462 0.0200353 0.0671282 
322 1 0.0343404 -0.0260859 0.010601 0.0444085 
239 1 -0.021303 0.0213218 -0.0581779 0.0655218 
734 1 -0.0395837 -0.0788849 -0.0430181 0.0981848 
384 1 0.0929763 -0.0535715 -0.0649297 0.125421 
3476 2 -0.00408201 0.0939736 0.00779071 0.0943843 
311 1 -0.0119516 -0.0432801 -0.0772275 0.0893314 
3471 2 0.00246377 0.02669 0.0300258 0.0402489 
1938 1 0.0319298 -0.0630962 -0.00703975 0.0710648 
139 1 0.131585 -0.0420592 -0.00907179 0.138441 
727 1 0.0635856 -0.0406678 0.0563577 0.0941976 
1885 1 -0.000157435 0.0338394 -0.0701515 0.0778869 
2184 1 0.110582 0.163404 -0.0963873 0.21959 
2494 1 -0.144197 -0.0608771 -0.140502 0.210332 
2091 1 -0.035364 -0.00566136 -0.0581085 0.0682588 
281 1 0.0391033 0.0969303 0.105217 0.148308 
863 1 0.0185717 0.0853673 -0.0297954 0.0923052 
176 1 -0.0772065 0.0639155 -0.0427406 0.108962 
3710 2 -0.00589654 0.0650631 -0.0417875 0.0775511 
3572 2 0.000535474 -0.0892552 -0.0608399 0.10802 
4197 2 -0.074056 0.0524677 -0.0386267 0.0986365 
343 1 -0.0196439 -0.0393772 -0.106585 0.115312 
282 1 -0.0264805 -0.0377339 -0.0151771 0.0485326 
1038 1 -0.0162931 0.0701397 0.0244989 0.0760608 
408 1 0.159991 0.0624426 -0.0239437 0.173405 
412 1 0.135588 -0.0548868 -0.0137287 0.146919 
820 1 0.10532 0.00927299 0.0392137 0.112765 
585 1 -0.0682985 -0.0405318 -0.0731031 0.107942 
3609 2 0.0478627 -0.0766993 0.0105159 0.0910176 
719 1 -0.0172921 0.0676839 -0.0246759 0.0740879 
608 1 0.00770901 0.0151752 0.00611979 0.0180878 
106 1 -0.0154745 0.0584879 0.0506053 0.0788745 
1047 1 -0.110581 -0.0312681 -0.0209479 0.116811 
3573 2 0.0085941 0.0300388 -0.0632228 0.0705216 
751 1 -0.017835 -0.0179465 -0.0594507 0.0646108 
259 1 0.0629525 -0.0523063 0.0136493 0.0829776 
245 1 -0.0791413 -0.0252257 -0.0436154 0.0938188 
613 1 -0.0451601 -0.0198437 0.127718 0.136913 
4296 2 -0.0305915 0.0444684 0.0253506 0.0596317 
272 1 -0.101789 -0.0991688 -0.0175746 0.143193 
4239 2 -0.035815 -0.108264 -0.0589863 0.128387 
88 1 0.0700206 0.091725 0.0782349 0.139417 
4 1 0.100436 -0.011164 -0.0668119 0.121144 
361 1 0.0709105 0.0993897 -0.132457 0.180143 
358 1 -0.0416277 -0.0306383 -0.0398303 0.0652535 
194 1 0.00258795 0.0355716 -0.0764634 0.0843723 
2373 1 0.0116131 -0.0115369 -0.0918354 0.093283 
1982 1 0.0147341 -0.0108089 0.0160759 0.0243385 
3953 2 -0.00175532 0.0193765 0.0624666 0.0654263 
414 1 0.0183012 0.0170335 -0.0488013 0.0548329 
3186 1 0.0808065 -0.0832783 0.0175718 0.117362 
177 1 0.056794 -0.0307551 0.0661148 0.0924262 
1962 1 -0.0397395 0.0504545 0.0770233 0.100287 
706 1 0.0271368 -0.00340621 -0.0352676 0.0446297 
1544 1 -0.014378 -0.0693242 0.0313818 0.0774428 
4160 2 -0.0311912 0.0111306 -0.0175266 0.0374695 
19 1 -0.0394694 -0.0143636 -0.0889821 0.0983969 
3624 2 6.11158e-05 -0.0142442 -0.0576733 0.0594063 
115 1 0.107915 -0.072197 -0.0229097 0.131844 
1102 1 -0.0747825 -0.0125822 0.000384925 0.0758346 
1492 1 0.0221714 0.068826 0.0241014 0.0762199 
649 1 0.0484332 0.115463 -0.0471752 0.133802 
113 1 0.0451186 -0.0144809 -0.0083643 0.0481181 
1150 1 0.0245426 -0.00954975 0.0527327 0.058943 
620 1 -0.0456778 -0.00188018 -0.00290936 0.0458089 
739 1 -0.0892965 -0.0248509 0.0250593 0.0960177 
2412 1 0.0137123 0.053217 -0.00721148 0.0554263 
3746 2 0.0803057 0.0288233 -0.145568 0.16873 
1225 1 0.0132702 0.0629846 0.0814466 0.103811 
241 1 0.0865676 0.0266144 -0.00384868 0.0906481 
83 1 0.0308645 0.0234921 -0.0224559 0.0448192 
1006 1 0.0297646 0.00567751 -0.00470474 0.0306644 
4046 2 -0.0622354 -0.0809559 -0.0399025 0.109633 
96 1 0.0207543 -0.102053 -0.000408305 0.104142 
411 1 0.0607141 0.0588573 0.0771721 0.114481 
2454 1 -0.0566796 0.0118989 -0.00727692 0.0583705 
404 1 -0.0722708 0.0561217 0.0681681 0.114104 
226 1 0.0550592 -0.0195856 0.0747594 0.0948898 
534 1 0.0383792 -0.0179547 0.109906 0.117791 
3538 2 0.00399137 0.0401492 -0.0266507 0.0483544 
761 1 0.0652515 -0.0172428 0.0355843 0.0762975 
246 1 0.0872308 -0.0724507 0.0291195 0.117074 
2229 1 0.00738501 -0.0976981 0.0171274 0.0994625 
146 1 -0.00490169 -0.00530288 -0.0521694 0.0526668 
3608 2 0.0693429 -0.0143428 0.00107433 0.0708188 
503 1 -0.0368267 -0.00179029 0.0421767 0.0560204 
505 1 0.0955148 -0.0330817 0.00303308 0.101127 
1430 1 -0.0864713 -0.0356755 -0.0156977 0.0948496 
97 1 -0.0207858 0.0376771 -0.0688851 0.0812205 
1723 1 0.0340136 0.000432192 -0.082255 0.0890112 
3561 2 0.0437029 0.113566 -0.0277858 0.124817 
20 1 -0.0621299 -0.0740658 -0.0131601 0.0975656 
263 1 -0.0593737 0.122044 0.00868393 0.135997 
817 1 0.0858014 -0.0575394 0.0138178 0.104229 
1034 1 0.0236457 0.0183459 0.0166388 0.0342424 
353 1 0.039306 -0.00313776 0.107109 0.114137 
1260 1 0.0537174 0.0951903 -0.0216849 0.111432 
998 1 0.0224315 0.0538686 -0.048939 0.0761579 
1932 1 0.083289 -0.127938 -0.0196046 0.153914 
36 1 0.0863535 -0.107013 0.0116629 0.138003 
38 1 -0.0154564 -0.00802482 -0.0754637 0.0774472 
3130 1 -0.0144319 0.0114438 -0.0455502 0.0491331 
1973 1 0.077572 -0.0358695 0.131611 0.156925 
307 1 -0.00812756 -0.0578 -0.0731889 0.0936136 
2714 1 0.0877505 0.038967 0.0176914 0.0976297 
28 1 0.0426222 0.0153872 0.00579805 0.0456841 
1937 1 -0.00119022 0.0210323 -0.0415431 0.046579 
562 1 -0.0720497 -0.103384 0.00454736 0.126096 
3011 1 -0.0609491 -0.0109292 0.00880281 0.0625438 
410 1 0.0848992 -0.0347962 0.0293976 0.0963476 
693 1 0.0638843 0.104294 0.0753238 0.143639 
367 1 -0.0262614 0.00419992 -0.00317416 0.0267838 
318 1 0.0802144 0.031784 -0.0460306 0.0977926 
735 1 0.0899216 -0.0321885 0.0191635 0.0974126 
600 1 -0.0244566 0.0694354 0.0345683 0.0813287 
3590 2 -0.0550658 0.0466227 -0.0438115 0.0844118 
3636 2 0.0430632 -0.101168 0.0486052 0.120216 
26 1 -0.0796391 0.0654301 0.0554729 0.11705 
1199 1 0.041655 0.00522217 -0.0608223 0.0739038 
614 1 -0.0302532 -0.0384908 -0.0110663 0.0501923 
459 1 0.0437014 -0.0705889 -0.0553688 0.0997913 
3645 2 0.0683369 0.0995984 0.0464238 0.129402 
574 1 0.0366207 0.0369669 0.00310242 0.0521273 
780 1 0.0920771 -0.00985302 -0.00725668 0.0928866 
161 1 -0.0599985 0.0298334 -0.0247757 0.0714401 
309 1 0.114051 0.0586369 0.0199887 0.129791 
365 1 0.00885058 -0.124682 -0.0310808 0.128802 
191 1 -0.0569801 0.0685298 0.0145114 0.0902975 
1766 1 -0.00897734 0.0736253 -0.0462454 0.0874067 
2775 1 0.0151391 -0.0811988 -0.0586969 0.10133 
1030 1 0.0544062 -0.045515 0.0360881 0.0795864 
1505 1 0.100059 0.122853 0.104029 0.189544 
3872 2 0.0048183 0.0374383 -0.00494934 0.0380702 
580 1 -0.0381862 -0.0441298 -0.0145693 0.0601489 
2054 1 -0.111352 -0.0622887 -0.0570137 0.139749 
2064 1 0.0782499 0.00621225 -0.0574716 0.0972863 
529 1 -0.00379421 0.0477681 -0.0770097 0.0907011 
402 1 -0.0124414 0.0486083 0.00587053 0.0505175 
124 1 0.00535367 -0.0794218 0.0331957 0.0862464 
744 1 0.0826184 0.0152074 0.0109933 0.0847226 
185 1 0.0819748 -0.0423731 0.0997353 0.135877 
315 1 -0.0300939 -0.0482355 -0.047323 0.0739714 
655 1 -0.0408225 -0.0148773 0.108328 0.116717 
765 1 -0.0197546 0.0786548 0.0252038 0.0849238 
140 1 0.0324259 0.0680204 -0.048277 0.0894924 
59 1 -0.0427633 -0.0195437 0.0361996 0.0593386 
54 1 0.00683225 0.00895908 0.0240819 0.0265873 
3506 2 -0.00145761 0.0711728 -0.0558777 0.0904987 
666 1 -0.050704 -0.103292 0.0738348 0.136717 
43 1 0.0549119 0.109078 0.0663435 0.138978 
334 1 -0.0017248 0.0121074 0.000944869 0.0122661 
267 1 0.116557 0.0451985 -0.00970202 0.12539 
99 1 0.0574339 0.0600606 0.0854998 0.119231 
1189 1 -0.0793342 -0.0482622 -0.124317 0.155171 
201 1 0.000791023 -0.0791317 -0.0538809 0.0957371 
380 1 0.0298911 0.104132 -0.137837 0.175317 
1777 1 0.019504 -0.0159947 -0.041974 0.0489699 
2597 1 0.219963 -0.0251036 -0.0482825 0.226594 
2484 1 0.115422 -0.0536327 -0.0931259 0.157706 
308 1 -0.0439149 -0.0231718 -0.0280865 0.0570465 
3918 2 -0.0365807 0.062556 0.0260218 0.076997 
89 1 -0.0668362 0.0473403 -0.0341456 0.0887361 
300 1 -0.00821514 0.020503 -0.00281543 0.0222663 
3582 2 0.0174463 0.0504271 0.0155806 0.0555879 
712 1 -0.0783613 0.0432244 0.0659579 0.111172 
3836 2 -0.0116061 0.0340359 -0.0621354 0.071791 
268 1 0.0188355 -0.00527 -0.0105322 0.0222144 
788 1 0.000343622 0.0539983 -0.0993182 0.113049 
4091 2 -0.00110651 0.126139 0.00885913 0.126455 
371 1 0.0460897 0.0573692 0.0722005 0.103094 
3505 2 0.0177796 -0.0181874 0.0835169 0.0873039 
266 1 0.0477549 -0.0556692 -0.039326 0.0832234 
3571 2 -0.0498322 0.0232862 0.0457229 0.0715268 
637 1 -0.00726711 -0.000609647 -0.0627506 0.0631729 
157 1 -0.000258951 0.00268191 0.032138 0.0322508 
257 1 0.0294823 0.0345787 0.021972 0.0504744 
571 1 -0.0437494 0.0197938 -0.0434423 0.0647537 
665 1 -0.114542 0.0125532 0.139295 0.180777 
448 1 -0.0809779 -0.0476358 0.023766 0.0969093 
827 1 0.0991038 0.0952746 -0.00923203 0.137783 
3475 2 0.0084626 -0.00835543 0.0351097 0.0370691 
73 1 -0.0224628 0.094007 -0.0044555 0.0967562 
373 1 0.0686526 -0.0355523 0.0701634 0.104403 
247 1 0.0114131 -0.024563 -0.038464 0.0470434 
107 1 0.0540882 0.0161653 0.0141583 0.0582006 
675 1 -0.025639 0.0612722 -0.101347 0.121173 
434 1 -0.020628 0.0566427 0.0295477 0.067134 
159 1 -0.0534046 0.0238707 -0.0129137 0.0599051 
32 1 0.0470192 0.0719811 0.00847871 0.0863943 
3579 2 0.0414716 -0.0707776 -0.0369052 0.089952 
394 1 -0.0338439 0.0144434 0.0466156 0.0593889 
260 1 -0.0471641 0.0277231 0.0117865 0.0559638 
3972 2 -0.0434711 0.0249416 0.0974932 0.109621 
1801 1 -0.0663389 0.0158544 0.0646901 0.0940054 
2122 1 -0.0252738 0.00716028 0.0907751 0.0944995 
1966 1 0.0104937 -0.0340185 -0.065561 0.0746031 
291 1 -0.0059158 0.0123682 0.0221377 0.0260394 
2047 1 0.06866 0.00798928 0.0590766 0.0909289 
1899 1 -0.00857932 0.10238 0.0124931 0.103495 
622 1 -0.060696 0.0321549 0.00834942 0.0691928 
1993 1 -0.0237191 0.000591359 -0.0187484 0.0302399 
62 1 0.0351262 0.0694132 0.0364792 0.0859231 
2187 1 -0.00506816 -0.0150514 -0.0987908 0.100059 
4318 2 0.0500094 -0.0366959 -0.00401573 0.0621583 
44 1 -0.0249467 -0.0447337 0.061905 0.0803472 
824 1 -0.000440846 -0.010168 0.036253 0.0376545 
1282 1 -0.0221834 0.0171366 0.0969352 0.100907 
3626 2 0.062221 0.0536981 -0.0180709 0.0841516 
819 1 0.0339304 0.0298342 0.0755227 0.0880058 
773 1 -0.098619 -0.0925122 0.0281195 0.138112 
270 1 0.0265675 -0.0686441 0.0226659 0.0770168 
14 1 -0.0712696 0.0195088 -0.0567101 0.093145 
3540 2 0.047495 -0.0254481 -0.0138102 0.0556247 
997 1 0.0943415 -0.0317362 -0.012058 0.100264 
4275 2 -0.0233865 -0.0670893 -0.0843696 0.1103 
164 1 0.0566986 0.0559125 0.139131 0.160307 
234 1 -0.0316193 -0.0637635 0.0598186 0.0929722 
1125 1 -0.00457323 0.0592248 -0.0663205 0.0890332 
3985 2 -0.0775913 -0.00679112 0.0899558 0.11899 
328 1 0.0295535 0.0184431 -0.0430792 0.0554019 
3474 2 0.00621145 0.0135728 -0.0258573 0.0298564 
543 1 -0.0735593 -0.0162341 -0.0130706 0.0764549 
293 1 0.0816552 -0.0457465 0.0366906 0.100531 
3458 2 0.0602331 -0.052017 0.0643158 0.102325 
390 1 -0.0179536 -0.0453767 -0.00378943 0.0489463 
3706 2 0.10426 -0.109221 -0.0569411 0.161375 
2169 1 0.0738182 0.0734214 0.00584958 0.104279 
1786 1 -0.024721 0.021367 -0.0802655 0.0866616 
1478 1 0.0110321 -0.00945044 0.127793 0.128616 
87 1 0.00550751 -0.0261603 -0.0213133 0.03419 
4090 2 0.000941027 -0.0530164 0.0431697 0.0683758 
142 1 -0.0185168 0.0282613 0.0550049 0.0645531 
1650 1 -0.0748543 -0.0556211 -0.0754817 0.119977 
153 1 0.00299736 0.0402792 0.0116698 0.0420426 
374 1 0.0635871 -0.0118131 -0.0258874 0.0696637 
602 1 0.00377212 -0.0555938 -0.0351161 0.0658638 
1277 1 -0.054234 0.0180929 0.0125374 0.0585309 
76 1 -0.0263244 -0.0435762 0.0712456 0.087566 
1370 1 0.0543045 -0.0355374 0.0976143 0.11722 
221 1 -0.00367666 0.0455496 -0.0459005 0.0647699 
604 1 -0.00726319 0.0614099 0.0899766 0.109178 
1161 1 -0.0722706 -0.0216683 0.0165675 0.0772466 
1718 1 -0.123401 0.0158827 -0.0991616 0.159101 
178 1 0.0324358 -0.151089 -0.00501834 0.154613 
295 1 -0.086873 -0.0487565 0.0227871 0.102193 
1472 1 -0.0629887 -0.0511275 0.0315466 0.0870447 
4159 2 -0.0122139 -0.042431 -0.0337693 0.0555872 
3467 2 0.102642 -0.0100153 0.0258699 0.106325 
3531 2 0.0193105 -0.0424931 0.111987 0.121325 
2720 1 -0.101356 0.0706687 -0.0491716 0.132985 
1851 1 0.00188938 0.0210609 -0.00167974 0.0212121 
732 1 -0.0485489 -0.0919263 0.0134758 0.104829 
4009 2 0.0150155 0.109353 -0.0181333 0.111859 
3878 2 0.0220591 0.0236378 -0.0259112 0.0414336 
3185 1 -0.131292 -0.0432733 0.0264702 0.140751 
110 1 -0.0505814 -0.0256743 0.0300514 0.0641929 
2963 1 -0.0305688 -0.00859942 -0.0296208 0.0434257 
2608 1 -0.0413653 0.0121223 -0.0174887 0.0465177 
3301 1 -0.00183891 -0.001548 0.0259425 0.0260536 
3759 2 -0.0254465 0.00210279 -0.0170085 0.0306796 
4171 2 -0.0248128 0.0230206 -0.00165703 0.0338876 
2118 1 -0.00198499 0.0557069 -0.0443531 0.0712348 
1742 1 0.0606286 -0.0780412 0.0223976 0.101331 
642 1 0.0332699 -0.135743 0.0739387 0.158114 
3366 1 -0.0475068 0.0116045 0.086761 0.0995943 
144 1 0.139347 0.127694 0.0188807 0.189947 
681 1 0.0538667 -0.0489423 -0.0838846 0.111057 
1666 1 0.103491 -0.0481856 -0.0326008 0.118722 
183 1 -0.103852 -0.0651821 -0.0307647 0.126414 
694 1 -0.140951 0.0145059 0.0740365 0.159872 
444 1 -0.0248622 0.0629453 -0.099712 0.12051 
869 1 -0.0274443 -0.115591 0.0975457 0.153719 
920 1 -0.00244242 -0.0876322 -0.0467592 0.0993569 
53 1 0.0377234 0.00324191 0.0314074 0.0491934 
1450 1 -0.171028 -0.0558902 -0.0367869 0.183651 
1579 1 0.119792 -0.083003 0.0681404 0.160881 
51 1 0.0920013 0.0329516 0.0233193 0.100468 
4187 2 -0.0956415 -0.0602362 -0.180379 0.212867 
1694 1 -0.00692585 -0.100115 0.088631 0.13389 
1590 1 0.0220156 0.0276884 -0.0524065 0.063228 
2005 1 -0.0249908 -0.00208388 0.126325 0.12879 
736 1 -0.0501431 -0.00925434 -0.0591165 0.0780688 
363 1 0.0476882 -0.00159862 0.0385652 0.0613514 
230 1 0.0249866 0.0337684 0.171379 0.176452 
2538 1 0.00578949 0.00676747 -0.0719975 0.0725463 
357 1 -0.084259 0.00491467 0.0154251 0.0858002 
3849 2 0.117577 -0.0225129 -0.0102336 0.12015 
4102 2 0.0593558 -0.108026 0.0448797 0.131175 
1032 1 0.0713396 -0.0181087 0.0167727 0.075489 
78 1 -0.00747478 0.0338815 -0.0303026 0.046066 
564 1 0.127687 0.00220715 0.115289 0.172047 
797 1 0.143643 -0.0502983 -0.0553233 0.161938 
1476 1 0.146098 -0.0319363 -0.026963 0.15196 
872 1 -0.0883478 -0.0364879 -0.0675955 0.117072 
475 1 -0.0431449 0.0138365 0.0303244 0.0545206 
4119 2 0.124731 -0.0801696 -0.0691929 0.163623 
576 1 -0.142857 0.042914 0.0642084 0.162396 
507 1 0.0566309 -0.0380044 0.0237126 0.0722058 
248 1 0.0838291 -0.052621 -0.0114658 0.0996381 
3597 2 -0.0586896 0.0405684 0.045461 0.0845989 
539 1 0.00520873 0.018233 0.0846047 0.0867037 
63 1 0.0676603 0.0203034 0.0419999 0.0821836 
57 1 -0.089636 0.00058436 0.000525067 0.0896394 
854 1 -0.000779634 0.0462271 0.0124684 0.0478854 
668 1 0.118327 -0.0853964 -0.122203 0.190335 
385 1 -0.105273 -0.173449 0.0138136 0.203366 
752 1 0.0373168 0.00316928 -0.00883585 0.0384793 
3650 2 0.00994717 0.0952723 0.00356197 0.0958564 
3736 2 -0.0821256 -0.112711 -0.0401137 0.145112 
254 1 -0.0751581 -0.10989 -0.022791 0.13507 
3637 2 -0.0139581 0.00963701 0.0919283 0.0934801 
731 1 0.0433847 0.0162167 -0.0621678 0.0775244 
2304 1 0.106684 -0.0611261 -0.0700236 0.141496 
610 1 -0.090925 -0.0186475 -0.102609 0.138361 
292 1 -0.0752828 0.0169852 0.0134047 0.0783306 
313 1 -0.0885475 -0.00453876 0.0431574 0.0986094 
2133 1 -0.00532621 -0.11272 0.0198145 0.114572 
646 1 -0.0840275 -0.0104995 -0.0468438 0.096774 