ITEM: TIMESTEP
56
ITEM: NUMBER OF ATOMS
4320
ITEM: BOX BOUNDS pp pp pp
0.0000000000000000e+00 1.9309999999999999e+01
0.0000000000000000e+00 1.9309999999999999e+01
0.0000000000000000e+00 9.6549999999999994e+00
ITEM: ATOMS id type c_displacement[1] c_displacement[2] c_displacement[3] c_displacement[4] 
4012 2 0.0420393 -0.0771794 -0.0212433 0.090417 
2361 1 -0.0349478 -0.102872 -0.0803466 0.135128 
79 1 -0.0377169 -0.0760608 0.0116277 0.0856914 
781 1 0.0595336 -0.0245909 0.109663 0.12718 
461 1 0.00711803 0.0372991 -0.0229563 0.0443721 
3704 2 0.0070173 -0.0892166 0.0145272 0.0906636 
629 1 -0.0662151 0.0984259 0.0383181 0.124661 
1571 1 0.0135406 -0.0194574 -0.0327482 0.0404274 
58 1 0.0987409 0.0924804 0.104475 0.170931 
2372 1 -0.0548514 -0.0348948 -0.00893398 0.0656211 
372 1 0.0170428 -0.0624713 -0.0148772 0.0664413 
3504 2 -0.0261016 -0.0845146 0.0428206 0.0982732 
4130 2 0.0403899 -0.0230044 -0.0925591 0.103575 
1262 1 0.0611351 0.086922 -0.0598753 0.121975 
907 1 -0.108332 -0.0648754 -0.141661 0.18977 
3659 2 -0.00670803 0.164292 -0.103234 0.19415 
1298 1 0.0492722 0.0757528 -0.104516 0.138166 
1716 1 0.0432832 0.0727677 -0.0702601 0.110023 
1182 1 0.0440156 0.0231082 -0.0257446 0.0559834 
683 1 -0.022118 -0.0547778 0.059112 0.0835706 
1958 1 -0.0084719 -0.0573736 0.0514044 0.0774979 
1554 1 0.0382398 -0.0819833 -0.0803404 0.120988 
1037 1 -0.00222223 -0.148529 0.021383 0.150077 
749 1 -0.100837 -0.0949988 0.0446567 0.145558 
3628 2 0.0476497 0.0614904 -0.00584785 0.0780113 
946 1 -0.055647 -0.0170977 -0.0539181 0.0793479 
2232 1 -0.0217818 -0.0915753 -0.0947953 0.133591 
7 1 0.0388426 0.00289701 0.0325717 0.0507745 
501 1 -0.00942133 0.0435645 -0.0698573 0.0828654 
179 1 -0.0343824 -0.0304065 -0.0545504 0.0712913 
714 1 -0.112917 -0.0342983 0.109029 0.160667 
4166 2 0.00229499 -0.0756341 0.0451354 0.0881078 
276 1 -0.0306663 -0.0117629 0.11604 0.120599 
767 1 -0.047059 -0.0311488 0.0254537 0.0619087 
3890 2 -0.189609 -0.0501851 -0.115834 0.227788 
6 1 0.0185859 0.155092 -0.0325953 0.159566 
2086 1 0.00189937 0.0107863 0.0423904 0.0437824 
224 1 0.0836917 -0.0483714 0.00667321 0.0968949 
3660 2 0.0182109 0.00348054 0.0678015 0.0702908 
596 1 -0.0922873 -0.00780771 -0.00791232 0.0929544 
1214 1 0.0266895 -0.0678311 -0.0881305 0.11437 
3686 2 0.0221562 0.0147788 0.0338681 0.0430855 
427 1 -0.0957907 0.0712372 0.100828 0.156259 
350 1 0.015534 0.0667825 -0.0505782 0.0852018 
85 1 -0.0284141 0.0362417 0.0528812 0.070123 
598 1 -0.00360759 -0.0713859 0.107062 0.128729 
3554 2 0.0451952 -0.0380027 -0.0389155 0.0707194 
29 1 -0.115562 0.0620223 0.00375772 0.131208 
464 1 0.00753983 0.0132245 -0.104414 0.105518 
3619 2 -0.0615916 0.0470289 0.105315 0.130753 
12 1 -0.0328986 -0.119353 -0.0477864 0.132706 
364 1 -0.13789 -0.0079137 -0.096813 0.168668 
1849 1 -0.0727261 -0.112009 -0.0673914 0.149588 
3663 2 -0.176038 0.0595223 -0.0253931 0.187555 
3517 2 0.0228858 0.00735383 0.121284 0.123643 
25 1 0.200755 0.00226137 -0.0610536 0.209846 
4163 2 0.0322213 -0.0177046 -0.0284059 0.0464603 
399 1 0.0443988 0.0263052 -0.0262625 0.0579046 
4265 2 -0.0610567 0.0711962 0.060585 0.111657 
527 1 0.027454 0.0363896 -0.0461934 0.0648981 
200 1 0.0853874 0.0415048 0.100399 0.13818 
1951 1 0.13493 0.111406 0.0436061 0.18033 
644 1 0.0298873 -0.0444828 0.0571284 0.0783302 
193 1 0.0481845 0.0960557 0.0399221 0.11464 
550 1 0.0215003 -0.0308983 -0.0327904 0.0499217 
69 1 0.0254583 -0.0121086 -0.0198524 0.0344799 
842 1 -0.068831 0.0396278 -0.0462619 0.0919142 
578 1 -0.00418225 -0.0113334 0.0197135 0.0231206 
172 1 -0.0296361 -0.0498592 0.0246829 0.0630356 
381 1 -0.0205772 0.00502115 -0.0403471 0.0455689 
3524 2 0.054626 -0.097069 0.132649 0.173211 
688 1 -0.0804941 0.107754 -0.0225081 0.13637 
3651 2 -0.0545755 0.0520029 0.0551246 0.0933891 
2367 1 0.0418667 0.00409391 -0.0331338 0.0535484 
1244 1 -0.102647 -0.0407479 5.15691e-05 0.110439 
796 1 -0.0655927 0.111522 -0.0376972 0.134761 
691 1 0.0536429 -0.011788 0.0146573 0.056845 
421 1 0.0683935 0.047588 0.0588931 0.102033 
597 1 -0.0184781 0.0578645 0.00297467 0.060816 
3617 2 0.0595194 -0.00771239 -0.0402891 0.072286 
120 1 0.0846171 0.147045 0.0807011 0.187869 
769 1 -0.0744452 -0.0266752 0.0505352 0.0938481 
2142 1 -0.00629252 0.0411161 -0.0343621 0.0539526 
3611 2 0.158553 0.0273938 0.16833 0.232862 
1915 1 -0.0131766 0.0667646 0.056228 0.0882763 
2140 1 0.0134277 -0.0213817 0.107328 0.110258 
3828 2 0.118227 0.045433 0.0618464 0.14095 
3204 1 -0.00289329 0.0645974 0.0482087 0.0806553 
175 1 0.109655 0.0256967 -0.0426445 0.120429 
2011 1 0.139265 0.0538558 -0.0192584 0.150552 
75 1 0.00294158 0.125588 -0.0518418 0.135899 
547 1 0.000193532 -0.0381568 -0.1087 0.115203 
4316 2 -0.0797905 0.0564649 -0.063788 0.116721 
559 1 0.0288574 0.0409319 -0.0129902 0.0517389 
717 1 -0.0152784 0.0819474 -0.0560551 0.100454 
242 1 -0.000294279 -0.0408088 0.0823351 0.091894 
3510 2 -0.0944735 0.0278661 0.120169 0.155378 
130 1 0.108837 -0.0246738 0.130073 0.171386 
143 1 -0.00748529 0.071839 -0.0716924 0.101768 
202 1 -0.15104 -0.0976578 -0.0711802 0.193434 
182 1 -0.137185 0.0485852 0.00670621 0.145689 
84 1 0.0429464 -0.0240684 -0.0208489 0.0534636 
3633 2 0.00543002 -0.0640871 0.0213973 0.0677827 
35 1 -0.165639 0.037425 0.127148 0.21214 
3612 2 0.0257907 0.0418823 -0.0182565 0.0524651 
40 1 0.155886 0.103157 0.0905079 0.207686 
4005 2 0.0649264 -0.0819209 0.0448408 0.113742 
718 1 -0.0964556 -0.0135708 -0.0565149 0.112613 
134 1 -0.0269031 0.00576689 0.107964 0.111415 
511 1 -0.050978 -0.044709 0.00617108 0.0680863 
757 1 0.0256291 0.160295 0.00507263 0.16241 
3555 2 -0.0713707 0.0801607 0.0487771 0.117893 
3481 2 -0.0268485 -0.0182438 -0.0407227 0.0520771 
135 1 0.0074042 -0.0438039 -0.0773881 0.0892329 
369 1 0.0762538 -0.041079 0.0721677 0.11274 
2148 1 -0.0993331 -0.0608886 0.0459562 0.125246 
3462 2 0.0537862 -0.0657518 -0.170341 0.190348 
1914 1 0.00708296 0.0593683 0.00774386 0.0602888 
3661 2 0.0932038 -0.135524 0.0105379 0.164818 
1871 1 0.0142885 0.0373927 -0.0475682 0.06217 
320 1 -0.0593408 -0.0405321 -0.0481122 0.086481 
582 1 -0.0309226 -0.105516 -0.050867 0.12115 
766 1 -0.0240724 0.0156326 -0.00382184 0.0289562 
3552 2 0.0136631 -0.0236232 -0.00323887 0.0274813 
2290 1 -0.0421074 0.037015 0.0281482 0.0627333 
1794 1 -0.00678622 0.0642535 0.0900069 0.110796 
753 1 -0.0473931 0.0440645 0.0583895 0.0871614 
396 1 0.0083639 -0.00795008 0.15301 0.153444 
496 1 -0.00172206 -0.00947186 -0.096015 0.0964965 
480 1 -0.045337 -0.0620917 0.0881334 0.116954 
253 1 0.0480259 -0.00711141 -0.0286459 0.0563706 
4033 2 -0.0148021 0.0230005 -0.0655294 0.0710087 
347 1 -0.040613 0.0202646 -0.0383767 0.0594377 
586 1 -0.107038 0.0484091 -0.113186 0.163131 
3671 2 0.0343892 0.0203619 -0.0564796 0.0691893 
37 1 0.0292232 -0.134216 -0.00951677 0.13769 
782 1 0.0300257 -0.136643 -0.0415655 0.145947 
481 1 0.0893003 -0.0301456 -0.0806468 0.124045 
392 1 -0.0299548 0.0434388 -0.0959715 0.10952 
333 1 0.0502388 -0.0383256 -0.0201057 0.06631 
342 1 -0.0263694 -0.0463498 -0.0377049 0.0653093 
1179 1 0.000450116 -0.0356817 -0.062626 0.0720791 
517 1 0.0121135 -0.0950099 -0.025616 0.0991453 
1824 1 0.0488271 -0.0534723 0.102717 0.125675 
34 1 0.0850871 0.000568928 0.0366488 0.0926459 
398 1 -0.0150719 -0.0579814 -0.0813883 0.10106 
170 1 -0.0692694 -0.0674778 -0.0577574 0.112638 
235 1 0.0467048 -0.103009 0.0891273 0.143999 
3852 2 -0.0349167 0.00229035 -0.0134503 0.0374878 
816 1 0.0441937 -0.036446 -0.0869103 0.10409 
3931 2 -0.143697 -0.134268 0.0891031 0.215908 
274 1 -0.0227846 -0.0558452 -0.0211351 0.0639103 
30 1 -0.0103117 -0.0347255 -0.038172 0.052624 
2066 1 0.0787092 -0.0383451 0.144262 0.168751 
1082 1 -0.0144679 -0.118814 0.0992667 0.155499 
1372 1 0.00654149 -0.0531863 0.105976 0.118754 
1265 1 0.0784692 -0.039978 -0.0822461 0.120499 
601 1 -0.0232497 0.0749486 0.0150284 0.079898 
540 1 -0.0253371 -0.0542277 -0.00990307 0.0606686 
589 1 -0.0449174 0.149633 0.116393 0.194821 
958 1 0.134568 -0.0181123 0.0181805 0.136993 
504 1 -0.0829654 0.0567173 -0.0332814 0.105867 
1349 1 -0.107806 0.00782398 -0.0676376 0.127508 
9 1 0.0250191 -0.125849 0.0176851 0.129525 
149 1 -0.0133756 0.0664589 -0.0186312 0.0703051 
163 1 0.0147131 -0.166808 0.0489526 0.174464 
4247 2 0.0225324 -0.0774445 -0.0479452 0.0938301 
1584 1 0.170878 -0.0113423 -0.083025 0.190318 
3570 2 -0.0360425 -0.0985567 -0.0198771 0.106806 
237 1 0.017676 0.0618086 0.0843145 0.106027 
490 1 0.00689655 -0.0822444 -0.031092 0.0881954 
50 1 -0.0325855 -0.0205217 0.0170948 0.042133 
152 1 0.0829001 0.000606817 -0.0937031 0.125112 
3652 2 -0.0505425 -0.0370846 -0.000574141 0.0626908 
3823 2 0.0618029 0.0961009 -0.136481 0.177994 
902 1 0.0240627 0.0655182 -0.0127479 0.0709518 
3574 2 -0.0385466 0.0617521 -0.056017 0.0918535 
770 1 -0.0146816 -0.0671168 -0.0535609 0.0871148 
154 1 -0.0364807 -0.0517229 -0.00579715 0.0635586 
116 1 0.0957224 -0.0569138 0.0663325 0.129622 
710 1 -0.0913983 -0.160032 -0.101142 0.210223 
1956 1 -0.0413576 0.0155712 -0.01698 0.0473417 
1810 1 -0.110359 -0.0309126 0.0568416 0.127929 
2072 1 -0.0697106 -0.0367281 0.00350835 0.0788722 
1649 1 -0.0618087 0.0268658 -0.0885838 0.111307 
186 1 -0.0564907 0.0635447 0.0749145 0.11332 
1063 1 -0.092943 0.120285 -0.172931 0.230244 
432 1 -0.151805 0.0663747 -0.144526 0.21986 
2495 1 -0.0305483 -0.102651 0.0633738 0.124446 
3896 2 -0.00410846 -0.0162578 -0.0874784 0.0890711 
4115 2 0.0368823 -0.00923552 -0.0308421 0.0489575 
913 1 0.0560285 -0.0382478 0.0168088 0.0698901 
1068 1 -0.0374108 0.0110126 -0.0278607 0.0479277 
265 1 -0.0865333 -0.0152945 -0.056213 0.104316 
1287 1 0.0404747 0.104192 0.0227476 0.114068 
3799 2 0.0874094 -0.0762363 -0.132926 0.176413 
554 1 0.0737155 -0.0816742 -0.0217249 0.112146 
1414 1 -0.00806173 0.0529591 -0.0665657 0.0854438 
213 1 0.00883613 -0.00186061 0.0432891 0.0442209 
341 1 -0.0976659 -0.0428265 -0.0334257 0.111759 
3682 2 -0.0219175 0.0610167 -0.0588434 0.0875554 
754 1 -0.0837202 0.0444252 0.0224142 0.0973913 
112 1 -0.0585554 0.043275 0.00241009 0.072851 
1041 1 -0.0156224 -0.0286669 0.0228495 0.039849 
119 1 0.0275923 0.0586562 0.0373791 0.074827 
415 1 -0.0480569 0.0202666 -0.0465477 0.0699063 
995 1 -0.0694763 0.0516284 0.023208 0.0896162 
4128 2 0.0277113 -0.0318583 0.174282 0.179324 
8 1 0.0290555 0.0675577 0.00768903 0.0739418 
94 1 0.0359865 -0.0382887 -0.0112686 0.0537404 
48 1 0.0439871 0.0126331 0.0496369 0.067515 
437 1 -0.00213972 -0.0572531 -0.0591375 0.0823391 
3866 2 0.0668911 0.0239724 -0.0375642 0.0803751 
2206 1 0.0205135 0.00453193 -0.0174876 0.0273342 
3490 2 -0.0977302 0.0199646 -0.0362818 0.106142 
3072 1 -0.0290856 -0.0838455 0.0446119 0.099329 
3002 1 0.0799465 0.124444 0.0398123 0.153176 
92 1 0.0491613 0.0908933 0.100466 0.144124 
335 1 -0.0240476 0.0740263 -0.0372594 0.0862928 
2192 1 -0.00886742 0.0107663 0.0831717 0.0843331 
1186 1 0.0320802 -0.0204338 -0.0117472 0.039808 
1114 1 0.0516529 -0.0078782 0.027528 0.0590582 
1821 1 -0.0635971 -0.0733245 -0.0687581 0.118949 
1922 1 0.0514997 -0.0891223 0.0490798 0.114034 
451 1 -0.115366 -0.036869 -0.00857729 0.121418 
3960 2 -0.0049783 -0.0396563 0.0350419 0.053154 
100 1 -0.0340531 0.0328883 -0.0900142 0.101705 
1180 1 0.0254825 -0.0503544 -0.0955525 0.110974 
165 1 0.0679263 -0.0319149 -0.00578597 0.075273 
388 1 -0.0731668 -0.0398719 -0.0645172 0.105383 
3742 2 0.0692773 -0.0582525 0.0156051 0.0918489 
323 1 -0.134465 0.149361 -0.0332475 0.203704 
288 1 -0.0841061 0.0182863 -0.00595737 0.086277 
3942 2 -0.085881 0.0781788 0.104188 0.156021 
66 1 0.0675074 0.0246832 0.063012 0.0955878 
340 1 0.0276686 0.0405327 -0.0394271 0.062952 
138 1 -0.0162135 -0.0170912 0.0195672 0.0306245 
879 1 -0.0134406 -0.0337966 -0.0720551 0.0807143 
3808 2 0.0738796 0.0986905 -0.0253478 0.125859 
834 1 0.0232666 0.0249283 0.0122673 0.0362387 
18 1 -0.078601 -0.063527 -0.0927305 0.13716 
3679 2 0.0598136 -0.0417922 -0.0458731 0.0861893 
52 1 0.0446247 -0.0778559 0.000545497 0.0897396 
407 1 0.0129318 0.0164192 -0.0683978 0.0715197 
360 1 0.0683412 -0.0482247 -0.0817648 0.116968 
2885 1 -0.0951798 -0.0334844 -0.0136624 0.101819 
3526 2 -0.0260251 -0.227368 -0.0607625 0.236782 
310 1 -0.0818763 -0.043871 -0.0198845 0.0949936 
326 1 0.120422 -0.0135564 0.0724698 0.141199 
227 1 -0.0280373 -0.0482042 -0.0385078 0.0677686 
2068 1 -0.136365 -0.022131 -0.114969 0.179731 
456 1 0.0522098 -0.0147992 0.0426237 0.0690048 
279 1 -0.0111459 0.0324344 0.117157 0.122073 
305 1 -0.0038265 0.0447252 -0.0545009 0.0706069 
49 1 0.000482134 0.0977382 0.058262 0.113787 
3512 2 0.0180046 -0.115177 0.0395404 0.123098 
11 1 -0.0791627 -0.186385 0.02808 0.204437 
189 1 -0.0819896 0.113439 0.0565157 0.150946 
2271 1 -0.11829 -0.0471412 -0.0185179 0.128677 
319 1 -0.101729 -0.0589253 0.00212759 0.117582 
3566 2 0.0291393 0.0621421 -0.0655309 0.0948949 
71 1 0.0306346 0.00226393 0.0501277 0.0587911 
1560 1 -0.0256683 -0.013899 0.0522635 0.0598625 
190 1 -0.0500303 -0.00449725 0.0970001 0.109235 
123 1 0.0793368 0.00489471 0.0947855 0.123704 
27 1 -0.0370459 -0.00953507 -0.0279197 0.0473584 
162 1 0.00253259 0.025874 -0.0963496 0.0997954 
255 1 -0.109914 0.0026818 -0.0222398 0.112174 
304 1 -0.0799578 -0.0092665 -0.0659404 0.104054 
321 1 0.0124444 -0.0557842 0.146973 0.157695 
682 1 -0.0820116 0.0223342 0.00698009 0.0852845 
3469 2 0.0396007 0.0260698 -0.0844162 0.0968191 
3539 2 0.0223427 0.023248 0.109723 0.114362 
128 1 0.0539463 -0.0640471 -0.0838205 0.118483 
3562 2 0.108831 0.0221468 0.120541 0.163905 
560 1 -0.157369 -0.0552508 -0.0339934 0.170215 
212 1 -0.0541888 0.0630808 -0.0541714 0.0992479 
355 1 0.0211322 0.0568035 0.0918818 0.11007 
156 1 0.0186451 0.0832827 0.0595015 0.104039 
3620 2 0.0384614 -0.0704586 -0.00970402 0.0808571 
1823 1 0.201811 -0.138907 -0.0913671 0.261478 
1805 1 -0.099744 0.0572061 0.093906 0.148458 
2599 1 -0.0748189 0.025602 0.0733834 0.107882 
327 1 0.079837 0.00844831 0.0284343 0.0851694 
137 1 0.0700166 0.0299213 0.0205742 0.0788727 
2334 1 -0.00194624 0.0315706 0.0416756 0.0523197 
3698 2 0.0315879 -0.0671356 0.00120263 0.0742053 
555 1 -0.0290508 -0.0512908 -0.0508515 0.0778497 
4178 2 -0.00198236 -0.0930127 0.054593 0.107869 
290 1 -0.00880504 0.0267613 -0.0114457 0.0304089 
284 1 0.0217516 0.0220265 -0.0407384 0.0511655 
3543 2 -0.0508841 -0.0320335 0.0304189 0.0673843 
366 1 0.0335368 -0.03056 0.0792867 0.091351 
55 1 0.000276666 0.0486235 -0.0132436 0.0503956 
273 1 -0.0323164 -0.0329963 -0.0502663 0.0682628 
3468 2 0.0932494 -0.0108432 0.0783268 0.122262 
316 1 0.13684 0.0184078 0.110336 0.176744 
81 1 -0.05914 -0.0174256 0.0048368 0.0618433 
322 1 0.04176 -0.0518154 0.0363262 0.0758177 
239 1 0.00139092 0.00962791 -0.0593747 0.0601663 
734 1 -0.00983848 -0.0662609 -0.0603902 0.0901902 
384 1 0.0748799 -0.0790136 -0.0867363 0.139188 
3476 2 0.0021211 0.0985173 0.0126908 0.099354 
311 1 -0.0412744 -0.0718551 -0.0734565 0.110737 
3471 2 0.0272336 0.0359138 0.0545923 0.0707939 
1938 1 0.063404 -0.064574 0.00685145 0.0907569 
139 1 0.167015 -0.0266401 -0.0161917 0.1699 
727 1 0.0856352 -0.0795987 0.0306381 0.120864 
1885 1 -0.00702385 0.0339249 -0.0600841 0.0693566 
2184 1 0.166264 0.143328 -0.0799563 0.233623 
2494 1 -0.166891 -0.0315715 -0.148641 0.225707 
2091 1 -0.0198998 0.015373 -0.0696606 0.0740603 
281 1 0.026144 0.106757 0.12115 0.163579 
863 1 0.0020716 0.073074 -0.0755058 0.105096 
176 1 -0.065185 0.0540224 -0.0603025 0.103942 
3710 2 -0.000906001 0.0699434 -0.0541389 0.0884529 
3572 2 -0.0134085 -0.110681 -0.0932353 0.145337 
4197 2 -0.0682452 0.0751806 -0.0727175 0.124889 
343 1 -0.0432692 -0.0419205 -0.116147 0.130842 
282 1 -0.0513542 -0.0310595 -0.0440698 0.0744587 
1038 1 -0.000666652 0.0790504 0.0576589 0.0978466 
408 1 0.190441 0.0183234 -0.00772172 0.191476 
412 1 0.134856 -0.0454675 -0.0137502 0.142977 
820 1 0.130497 0.0229616 0.0771353 0.153318 
585 1 -0.09363 -0.0316776 -0.103337 0.142999 
3609 2 0.0789124 -0.111076 0.0239687 0.138346 
719 1 -0.0164253 0.0576257 -0.0256842 0.0651935 
608 1 0.031798 0.0569163 0.0464976 0.0800788 
106 1 0.00344301 0.0551024 0.0594513 0.0811331 
1047 1 -0.12609 -0.0427892 -0.0333594 0.137268 
3573 2 0.0238545 0.0440009 -0.0789172 0.0934508 
751 1 -0.0125557 -0.0167914 -0.081207 0.08387 
259 1 0.0757549 -0.0357174 0.00311054 0.0838106 
245 1 -0.0766244 -0.0420495 -0.0196209 0.0895792 
613 1 -0.0564204 -0.0565795 0.116065 0.14091 
4296 2 -0.0224016 0.0542612 0.0281981 0.0651248 
272 1 -0.110199 -0.124727 -0.0325729 0.169592 
4239 2 -0.0841481 -0.105393 -0.0764866 0.155045 
88 1 0.0865456 0.103766 0.101432 0.168956 
4 1 0.0766862 -0.00388216 -0.0749914 0.107329 
361 1 0.102028 0.106393 -0.151728 0.211543 
358 1 -0.0588854 -0.00878549 -0.000146957 0.0595374 
194 1 0.0223561 0.042401 -0.0943119 0.105794 
2373 1 0.0222548 0.00103137 -0.108595 0.110857 
1982 1 0.0380043 0.0167083 0.0404306 0.0579494 
3953 2 0.00542364 0.0344525 0.0918532 0.0982518 
414 1 0.0235451 0.02534 -0.0819796 0.0889783 
3186 1 0.0987202 -0.0784461 -0.00271719 0.126122 
177 1 0.0620844 -0.0509923 0.0343912 0.0873925 
1962 1 -0.0320918 0.067115 0.125701 0.146065 
706 1 0.00739257 0.0216912 -0.0377447 0.0441568 
1544 1 0.00822856 -0.111919 0.0672777 0.130843 
4160 2 -0.0324952 0.044227 -0.0309099 0.0629872 
19 1 -0.0574762 0.0321799 -0.105015 0.123965 
3624 2 -0.0193096 -0.0133298 -0.0732146 0.0768825 
115 1 0.0859415 -0.0592181 -0.0607316 0.120752 
1102 1 -0.0666714 -0.0301123 0.0310529 0.079474 
2048 1 0.0834892 -0.0222083 -0.0280666 0.0908371 
649 1 0.0384799 0.111573 -0.0362221 0.123456 
113 1 0.0228625 -0.0333453 0.00500924 0.0407394 
1150 1 0.000324043 0.00366303 0.0554656 0.0555874 
620 1 -0.00180364 -0.0500752 -0.0149213 0.0522822 
739 1 -0.0641359 -0.0389686 -0.0176258 0.0770884 
2412 1 0.0121965 0.0370438 -0.0138324 0.0413803 
3746 2 0.0979516 0.0328489 -0.167827 0.197077 
1225 1 -0.00795838 0.0510456 0.104739 0.116788 
241 1 0.111527 -0.00436657 0.00392142 0.111681 
83 1 0.0236756 -0.00282011 -0.0163199 0.0288934 
1006 1 0.0442818 0.00488825 -0.00442355 0.0447698 
4046 2 -0.0660985 -0.101827 -0.0353284 0.126435 
96 1 -0.00491049 -0.135347 0.0245223 0.137639 
411 1 0.0958082 0.0553149 0.0793352 0.136136 
2454 1 -0.0738366 0.0145804 0.0320435 0.0817998 
404 1 -0.0844076 0.0794397 0.0783232 0.139892 
226 1 0.044889 -0.0147297 0.0699571 0.0844155 
534 1 0.0472176 -0.032861 0.121086 0.134057 
3538 2 -0.029409 0.0563866 -0.052905 0.0827241 
761 1 0.0650164 -0.0348966 0.0593877 0.0947196 
246 1 0.0643341 -0.058403 0.0211669 0.0894305 
2229 1 -0.0151161 -0.137836 -0.00339604 0.138704 
146 1 -0.00111189 -0.0587245 -0.0596029 0.0836798 
3608 2 0.0498665 -0.00121002 0.0100158 0.0508768 
503 1 -0.0175807 -0.00124471 0.0289809 0.0339193 
505 1 0.124149 -0.04571 0.0163288 0.133301 
1430 1 -0.0755314 -0.0492816 -0.0408212 0.0989952 
97 1 -0.056323 0.0465009 -0.0977496 0.122023 
1723 1 0.0354015 0.00711942 -0.0908434 0.0977572 
3561 2 0.0620208 0.156368 -0.0491208 0.175243 
20 1 -0.0702388 -0.0547428 0.00501008 0.0891928 
263 1 -0.0568726 0.149905 -0.00362511 0.160372 
817 1 0.100928 -0.0735136 0.0196429 0.126398 
1034 1 0.0199521 0.028989 0.0167634 0.0389803 
353 1 0.0404968 -0.0192188 0.162311 0.168387 
1260 1 0.0526018 0.116444 -0.0346157 0.13238 
998 1 0.0384387 0.090417 -0.0634191 0.116939 
1932 1 0.119639 -0.150766 -0.034793 0.195587 
36 1 0.104115 -0.147393 -0.0334835 0.183537 
38 1 0.0195963 0.0189069 -0.0490203 0.0560756 
3130 1 -0.0499761 -0.0321342 -0.0558749 0.0815611 
1973 1 0.0891872 0.00854129 0.143219 0.168935 
307 1 0.0413973 -0.0446247 -0.0322917 0.0689047 
2714 1 0.0780646 0.0332007 0.0211622 0.0874312 
28 1 0.0753785 0.0344179 0.00289144 0.0829149 
1937 1 0.00257444 0.0474711 -0.0527093 0.0709817 
562 1 -0.0781428 -0.117335 0.00182983 0.140987 
3011 1 -0.0471505 0.00286174 -0.00698619 0.0477511 
410 1 0.0831751 -0.068547 0.0382801 0.114377 
693 1 0.0736707 0.0950596 0.147021 0.189944 
367 1 -0.012749 0.0037277 0.00550974 0.0143802 
318 1 0.0492093 0.0363631 -0.0895021 0.108418 
735 1 0.122514 -0.00997857 0.0208173 0.12467 
600 1 -0.0138816 0.0527127 0.0270204 0.0608394 
3590 2 -0.0183249 0.0700008 0.00385681 0.0724624 
3636 2 0.0505053 -0.0896988 0.0543429 0.116404 
26 1 -0.119726 0.0634227 0.0667423 0.151034 
1199 1 0.0294422 0.0407495 -0.0708451 0.08687 
614 1 -0.00243441 -0.0321924 -0.035761 0.0481781 
459 1 -0.00282605 -0.0838086 -0.0629517 0.104856 
3645 2 0.0729383 0.115506 0.060907 0.14957 
574 1 0.0565238 -0.0239329 0.0664023 0.0904268 
780 1 0.120387 -0.00150793 0.000655236 0.120399 
161 1 -0.100258 -0.0175301 0.0351576 0.10768 
309 1 0.115566 0.0844587 0.00205611 0.143154 
365 1 0.0319621 -0.15093 -0.0678464 0.168536 
191 1 -0.0696045 0.083552 0.00453433 0.108841 
1766 1 -0.0512571 0.0298965 -0.0384404 0.0707018 
2775 1 0.0611789 -0.0643908 -0.0708442 0.113613 
1030 1 0.127491 -0.087003 0.00686651 0.154501 
1505 1 0.139207 0.156404 0.1206 0.24163 
3872 2 -0.0212125 0.0265269 -0.00361043 0.0341567 
580 1 -0.037202 -0.0375254 0.00261304 0.0529054 
2054 1 -0.0863923 -0.078926 -0.0537871 0.128787 
2064 1 0.108412 0.0101208 -0.0554147 0.122174 
529 1 -0.0129568 0.0456687 -0.0876664 0.099694 
402 1 -0.0206451 0.0565052 0.0288894 0.0667357 
124 1 -0.027311 -0.103933 0.0511434 0.119011 
744 1 0.110338 -0.0038249 0.0350449 0.115833 
185 1 0.0739564 -0.0338297 0.0907542 0.121862 
315 1 -0.0259646 -0.0419234 -0.0447601 0.0665973 
655 1 -0.0235462 -0.0491529 0.146837 0.156625 
765 1 -0.0137624 0.0654638 0.0244954 0.0712386 
140 1 0.0259517 0.0892091 -0.112239 0.145703 
59 1 -0.0410655 -0.00291378 0.0610481 0.0736324 
54 1 0.00426842 0.0273303 0.0170953 0.0325179 
3506 2 -0.0258466 0.112084 -0.0942766 0.148724 
666 1 -0.0299878 -0.139406 0.0666595 0.157406 
43 1 0.0804079 0.0928842 0.0816083 0.147488 
334 1 -0.0322924 -0.0259306 0.0204778 0.0462011 
267 1 0.144846 0.0306142 -0.0668343 0.162433 
99 1 0.0672904 0.102018 0.0806048 0.146399 
1189 1 -0.0956892 -0.0363434 -0.161013 0.190794 
201 1 -0.0257761 -0.0903795 -0.0532373 0.108014 
380 1 0.0170678 0.127134 -0.163218 0.207592 
1777 1 0.0133511 -0.0174214 -0.0491128 0.0537943 
2597 1 0.248468 -0.028885 -0.00729349 0.250248 
2484 1 0.127883 -0.0478521 -0.0767646 0.156642 
308 1 -0.0184702 -0.0117187 -0.0481849 0.0529174 
3918 2 -0.0419776 0.097505 0.0582449 0.121086 
89 1 -0.0866607 0.061447 -0.0280754 0.109882 
300 1 -0.0107897 0.00588204 0.00482804 0.0132033 
3582 2 0.0289134 0.022603 0.00380256 0.0368963 
712 1 -0.0815091 0.0611602 0.0412151 0.109923 
3836 2 -0.0164292 0.0542564 -0.0663923 0.0873019 
268 1 -0.00447781 -0.0161678 0.0101521 0.019609 
788 1 -0.0215583 0.099287 -0.0945307 0.138776 
4091 2 -0.00162971 0.154668 -0.00924984 0.154953 
371 1 0.0283595 0.0782775 0.111785 0.139383 
3505 2 0.0433023 -0.0201472 0.0491586 0.0685388 
266 1 0.101889 -0.0767237 -0.0698212 0.145406 
3571 2 -0.0128638 -0.0339172 0.0669108 0.0761112 
637 1 -0.00751656 -0.000550469 -0.0853024 0.0856347 
157 1 -0.0500009 -0.00547893 0.0759593 0.0911039 
257 1 0.0252198 0.0195534 0.0106441 0.0336403 
571 1 -0.0308478 0.0391907 -0.0215274 0.0543225 
665 1 -0.147394 -0.0169951 0.169707 0.225421 
448 1 -0.107904 -0.0781573 0.0271262 0.135969 
827 1 0.0873979 0.0998074 0.00857413 0.132941 
3475 2 0.0576554 0.0269134 0.0518217 0.0820607 
73 1 -0.032628 0.0848594 0.00310494 0.0909689 
373 1 0.0960147 -0.0119605 0.0915069 0.133174 
247 1 0.0262291 -0.0341705 -0.0536722 0.0688207 
107 1 0.0636345 0.0318895 -0.0305984 0.0774761 
675 1 -0.050242 0.0759169 -0.106379 0.140014 
434 1 -0.00548823 0.0651204 0.0114505 0.0663468 
159 1 -0.0657653 0.0563175 -0.0199786 0.0888587 
32 1 0.0675607 0.0991221 0.00952582 0.120334 
3579 2 0.0668044 -0.0648041 -0.0702714 0.116621 
394 1 -0.049036 0.0140358 0.0548107 0.0748715 
260 1 -0.0356325 0.0567938 0.0165276 0.0690534 
3972 2 -0.0648972 0.0393662 0.0932215 0.120215 
1801 1 -0.0637107 0.0314684 0.0669798 0.0976504 
2122 1 -0.0224959 0.0065518 0.13364 0.135678 
1966 1 -0.00764123 -0.0653601 -0.0913122 0.112553 
291 1 -0.00997002 0.017187 0.0289241 0.0350913 
2047 1 0.0816832 0.0271373 0.0616711 0.105886 
1899 1 0.0191305 0.0715108 0.00355613 0.0741108 
622 1 -0.0502558 0.0729694 0.00252021 0.088637 
1993 1 -0.0191594 -0.00660379 -0.00962587 0.0224355 
62 1 0.0260189 0.0648031 0.055078 0.0889382 
2187 1 -0.0439054 -0.00420371 -0.106934 0.115673 
4318 2 0.0717111 -0.00455498 -0.00252578 0.0719 
44 1 -0.0141652 -0.0182056 0.0835521 0.0866778 
824 1 0.0311132 -0.00990294 0.0584654 0.0669649 
1282 1 -0.00421645 0.00314414 0.111124 0.111248 
3626 2 0.105706 0.0761561 -0.0252385 0.132704 
819 1 0.0410958 0.0631464 0.0843484 0.113097 
773 1 -0.118472 -0.137174 0.0412101 0.185878 
270 1 -0.0179988 -0.0594021 -0.00939539 0.0627761 
14 1 -0.0869435 -0.0230474 -0.0322295 0.0955463 
3540 2 0.0578568 -0.00779086 -0.0149573 0.0602646 
997 1 0.0806044 -0.078066 -0.0324307 0.116804 
4275 2 -0.0318644 -0.0738037 -0.123169 0.147081 
164 1 0.0517678 0.061726 0.157717 0.177101 
234 1 0.0200539 -0.0388541 0.080393 0.0915141 
1125 1 -0.0133976 0.0232421 -0.0733312 0.0780843 
3985 2 -0.0654018 -0.011327 0.0687882 0.0955903 
328 1 0.0300793 0.00722569 -0.0465876 0.055923 
3474 2 0.00638869 0.00501283 -0.0519906 0.052621 
543 1 -0.0840228 0.00430234 -0.00873762 0.0845854 
293 1 0.102253 -0.0624686 0.0701596 0.138854 
3458 2 0.0853262 -0.0472819 0.090154 0.13283 
390 1 -0.0109257 -0.0282894 -0.0515243 0.0597864 
3706 2 0.103798 -0.176462 -0.0836367 0.221152 
2169 1 0.0838952 0.105161 -0.0241619 0.136679 
1786 1 0.00721134 0.0147138 -0.0770319 0.0787554 
1478 1 -0.0150055 0.0244645 0.151504 0.154199 
87 1 0.0242366 -0.00863436 -0.0379226 0.0458267 
4090 2 -0.0212197 -0.046677 0.0405106 0.0653462 
142 1 -0.0065685 0.0286898 0.0413004 0.0507146 
1650 1 -0.0806573 -0.0738505 -0.0898997 0.141568 
153 1 0.023103 0.0251549 0.00928147 0.035393 
374 1 0.0573313 -0.023198 -0.0484519 0.078566 
602 1 0.0166942 -0.0795532 -0.0745071 0.110267 
1277 1 -0.0624735 0.0127855 0.0291613 0.0701198 
76 1 0.00400044 -0.0518732 0.113265 0.124643 
1370 1 0.0619516 -0.0258044 0.0974857 0.118353 
221 1 -0.0165989 0.0840152 -0.0253607 0.0893155 
604 1 -0.0376878 0.0561976 0.103027 0.12326 
1161 1 -0.0704296 -0.055016 0.000528998 0.0893721 
1718 1 -0.128025 0.0309393 -0.132264 0.186659 
178 1 -0.00841956 -0.216907 -0.0193079 0.217928 
295 1 -0.131606 -0.0648202 0.0136744 0.147339 
1472 1 -0.0847518 -0.0260063 0.00921492 0.0891297 
4159 2 -0.00612814 -0.0341921 -0.029423 0.0455233 
3467 2 0.111728 -0.0177086 0.00852961 0.113444 
3531 2 -0.0258397 -0.0714516 0.128875 0.149605 
2720 1 -0.0790982 0.0888054 -0.0663977 0.136204 
1851 1 -0.015643 0.00821867 -0.0039624 0.0181094 
732 1 -0.0214881 -0.0925509 0.0216528 0.0974488 
4009 2 -0.0348051 0.136026 -0.0177884 0.141531 
3878 2 0.0431462 0.043012 -0.0333014 0.0694307 
3185 1 -0.184284 -0.0346856 0.0358333 0.190912 
110 1 -0.0558844 -0.00837917 0.0382388 0.0682311 
2963 1 -0.042801 0.000146614 -0.0349972 0.0552879 
2608 1 -0.0422178 0.00698842 -0.0239409 0.0490342 
3301 1 0.0144244 0.010531 0.0756855 0.0777641 
3759 2 -0.0318454 -0.0362514 -0.02541 0.054534 
4171 2 -0.0595433 0.0220812 0.0112437 0.0644935 
2118 1 0.000446982 0.0774967 -0.0298248 0.0830389 
1742 1 0.0313264 -0.041659 0.0343705 0.0624351 
642 1 0.0312549 -0.167816 0.050227 0.177938 
3366 1 -0.039895 0.0229373 0.103899 0.113634 
144 1 0.14903 0.16638 0.024108 0.224663 
681 1 0.0611152 -0.0407749 -0.113814 0.135467 
1666 1 0.0934051 -0.0626929 -0.0300461 0.116437 
183 1 -0.112533 -0.0908599 -0.0397711 0.150003 
694 1 -0.162589 0.00796877 0.0717388 0.177891 
444 1 -0.0443048 0.0553017 -0.130092 0.148139 
869 1 -0.0506263 -0.143578 0.12931 0.199747 
920 1 -0.0170651 -0.113714 -0.0350534 0.120211 
53 1 0.0559805 -0.00561585 0.0427293 0.0706481 
1450 1 -0.219008 -0.0461579 -0.0752415 0.236127 
1579 1 0.104111 -0.107014 0.0682738 0.164172 
51 1 0.121959 0.0289332 -0.0162004 0.126386 
4187 2 -0.11629 -0.0793025 -0.178635 0.227427 
1694 1 -0.00653934 -0.121979 0.156422 0.198468 
1590 1 0.0294089 0.0195706 -0.0710389 0.0793373 
2005 1 -0.000762348 -0.0287844 0.129489 0.132652 
736 1 -0.0844718 0.000632699 -0.0362497 0.0919235 
363 1 0.0863095 0.000524896 0.0244952 0.0897197 
230 1 0.0221685 0.0316343 0.130064 0.135679 
2538 1 0.0454464 -0.0319089 -0.0566275 0.0793109 
357 1 -0.0754171 0.0018112 -0.0129956 0.07655 
3849 2 0.147564 -0.0398162 -0.0614585 0.164735 
4102 2 0.0241292 -0.121938 0.0436465 0.131742 
1032 1 0.0737735 0.00722928 0.0371532 0.0829166 
78 1 -0.00114491 0.0562951 -0.0383687 0.0681367 
564 1 0.204781 -0.0309273 0.108392 0.233753 
797 1 0.155405 -0.0591555 -0.0521459 0.174268 
1476 1 0.1934 -0.0146461 -0.0298043 0.19623 
872 1 -0.110127 -0.01997 -0.0922319 0.14503 
475 1 -0.0447136 -0.0236657 0.0266184 0.0571656 
4119 2 0.199687 -0.104352 -0.0942639 0.244233 
576 1 -0.157314 0.0220409 0.0567299 0.168677 
507 1 0.065975 -0.0737993 0.0163753 0.100335 
248 1 0.0761383 -0.047349 -0.0125273 0.0905312 
3597 2 -0.0722213 0.0618188 0.0849199 0.127471 
539 1 0.0168193 0.0013803 0.0758711 0.0777253 
63 1 0.0699298 0.0211233 0.0792269 0.107765 
57 1 -0.065969 -0.0159371 0.0122037 0.0689553 
854 1 -0.015586 0.0534075 0.0146195 0.057524 
668 1 0.112888 -0.118351 -0.121138 0.203531 
385 1 -0.103841 -0.227361 0.0382006 0.252854 
752 1 0.0327765 0.0355682 -0.00861035 0.0491278 
3650 2 -0.0123906 0.136877 -0.0280317 0.140266 
3736 2 -0.0867134 -0.148094 -0.00277599 0.171636 
254 1 -0.115997 -0.145673 -0.00292174 0.186238 
3637 2 -0.0116464 0.00852703 0.102119 0.103134 
731 1 0.0138005 -0.00448042 -0.0457699 0.0480147 
2304 1 0.108945 -0.102109 -0.0567272 0.159729 
610 1 -0.144967 0.000879402 -0.112556 0.183535 
292 1 -0.118591 0.014123 0.0126317 0.120096 
313 1 -0.114168 0.00812287 0.0415779 0.121774 
2133 1 0.00971721 -0.137126 -0.00465691 0.137548 
646 1 -0.102268 -0.0222298 -0.0722641 0.127181 
271 1 0.00592301 0.0879899 0.0712988 0.113406 
584 1 -0.0476735 0.0868473 -0.10007 0.140816 
3649 2 -0.0989261 0.0391193 0.0380677 0.112986 
1148 1 -0.0345204 0.107402 0.137322 0.177719 
779 1 -0.062732 -0.0572626 -0.00573212 0.0851303 