ITEM: TIMESTEP
70
ITEM: NUMBER OF ATOMS
4320
ITEM: BOX BOUNDS pp pp pp
0.0000000000000000e+00 1.9309999999999999e+01
0.0000000000000000e+00 1.9309999999999999e+01
0.0000000000000000e+00 9.6549999999999994e+00
ITEM: ATOMS id type c_displacement[1] c_displacement[2] c_displacement[3] c_displacement[4] 
4012 2 0.0412278 -0.0721218 -0.0560707 0.100226 
2361 1 -0.0425897 -0.0992798 -0.110753 0.154714 
79 1 0.0103769 -0.0655367 -0.0167022 0.0684229 
781 1 0.0571744 0.00515734 0.147817 0.158573 
461 1 0.0145509 0.0662275 0.0230599 0.071621 
3704 2 0.0155829 -0.101371 0.0203725 0.104565 
629 1 -0.0436014 0.109082 0.0404299 0.124236 
1571 1 0.0231088 -0.03988 -0.0403787 0.061277 
58 1 0.0751798 0.136606 0.0627511 0.16808 
2372 1 -0.0620044 -0.0322147 -0.0180935 0.0721783 
372 1 0.0334848 -0.0887174 -0.0121791 0.0956051 
3504 2 -0.0450386 -0.083996 0.0478227 0.106634 
4130 2 0.0680926 -0.0210231 -0.105646 0.127435 
1262 1 0.0551389 0.0562712 -0.05095 0.0938224 
907 1 -0.11731 -0.0574436 -0.140106 0.191549 
3659 2 -0.0088464 0.124459 -0.0913642 0.154647 
1298 1 0.0306535 0.0807552 -0.107748 0.138097 
1716 1 0.0593033 0.0511421 -0.0721854 0.106504 
1182 1 0.0423645 0.0335274 -0.0462108 0.0710934 
683 1 -0.00731669 -0.0616227 0.0382876 0.0729166 
1958 1 -0.0357413 -0.0391159 0.0236952 0.0580427 
1554 1 0.0471848 -0.091513 -0.0806635 0.130796 
1037 1 0.00781902 -0.120872 0.0153836 0.122097 
749 1 -0.0739113 -0.123168 0.0187074 0.144856 
3628 2 0.0410298 0.0603615 -0.0127297 0.0740878 
946 1 -0.0891368 -0.0359162 -0.0198977 0.098139 
2232 1 -0.0591142 -0.147773 -0.0997987 0.187859 
7 1 0.0246572 -0.0399232 0.0450948 0.0650798 
501 1 -0.00902519 0.00398574 -0.0405463 0.0417294 
179 1 -0.0424629 -0.0205683 0.00790103 0.0478391 
714 1 -0.124144 -0.00274524 0.0787315 0.14703 
4166 2 -0.00913023 -0.0833776 0.103476 0.133201 
276 1 -0.0315478 -0.0568358 0.100225 0.11946 
767 1 -0.0141635 -0.0253411 0.0208834 0.0357617 
3890 2 -0.181046 -0.0465228 -0.0819482 0.204102 
6 1 0.0232766 0.177156 -0.00773377 0.178846 
2086 1 0.0422383 0.0199173 0.029239 0.0550971 
224 1 0.127386 -0.062991 0.00806132 0.142338 
3660 2 0.00292017 -0.0240447 0.0880423 0.0913133 
596 1 -0.0875888 -0.0104849 -0.0151349 0.089503 
1214 1 0.0595646 -0.0580655 -0.0908925 0.123211 
3686 2 -0.00839649 0.0049862 0.0458109 0.0468401 
427 1 -0.128868 0.0583668 0.084149 0.164605 
350 1 0.0243037 0.0682761 -0.0787778 0.107043 
85 1 -0.0368029 0.0583629 0.0839076 0.108633 
598 1 0.0304102 -0.110428 0.0838942 0.141976 
3554 2 0.0745663 -0.0312299 -0.0411023 0.0906909 
29 1 -0.182303 0.0670733 -0.0314264 0.196776 
464 1 0.0406558 -0.0101119 -0.136818 0.143088 
3619 2 -0.0785635 0.0343364 0.126291 0.152645 
12 1 -0.0587984 -0.0418938 -0.0811897 0.108647 
364 1 -0.149421 -0.0254542 -0.0874058 0.174969 
1849 1 -0.0892012 -0.0948976 -0.0949216 0.16116 
3663 2 -0.195717 0.0625857 -0.0183631 0.206299 
3517 2 0.0132539 0.00999214 0.137724 0.13872 
25 1 0.223035 0.0280397 -0.0713808 0.235851 
4163 2 0.0159075 -0.0366491 -0.0209895 0.0451305 
399 1 0.0587491 0.0397632 -0.0299178 0.0769912 
4265 2 -0.0551576 0.0704861 0.10259 0.136145 
527 1 -0.00121062 0.0844122 -0.044564 0.0954612 
200 1 0.063192 0.0444011 0.12155 0.14401 
1951 1 0.129417 0.0990068 0.0194822 0.164106 
644 1 0.028897 -0.0375276 0.0472774 0.0669217 
193 1 0.04508 0.0775978 0.0657358 0.111242 
550 1 0.0448435 -0.0213496 -0.0147575 0.0518124 
69 1 0.0242092 -0.0420508 -0.0183968 0.0518921 
842 1 -0.0153887 0.0354603 -0.0337386 0.0513082 
578 1 0.022878 -0.0440213 0.00895673 0.0504133 
172 1 -0.0381049 -0.0289964 0.0376197 0.0608935 
381 1 -0.0320979 -0.0150407 0.012408 0.0375561 
3524 2 0.0354545 -0.0446727 0.0939962 0.109945 
688 1 -0.0378319 0.115563 0.00232263 0.12162 
3651 2 -0.0573186 0.0440963 0.080853 0.108476 
2367 1 0.0375201 0.00783699 -0.0625302 0.073343 
1244 1 -0.119836 -0.0363863 -0.00448814 0.125319 
796 1 -0.0198293 0.122824 -0.0433921 0.131765 
691 1 0.0389891 -0.00219717 -0.0191109 0.0434764 
421 1 0.083027 0.0588846 0.022126 0.104165 
597 1 0.0146441 0.0431518 0.0269432 0.0529383 
3617 2 0.0980126 -0.0265181 -0.0291454 0.105637 
120 1 0.0747829 0.208371 0.11064 0.247492 
769 1 -0.08814 -0.0490383 0.0365224 0.107272 
2142 1 0.0163864 0.0431116 -0.0266287 0.0532561 
3611 2 0.134561 0.0048786 0.184038 0.228037 
1915 1 -0.00189407 0.0943755 0.0753371 0.120772 
2140 1 0.045443 -0.0367674 0.0866539 0.104527 
3828 2 0.0968213 0.0703706 0.0731366 0.140269 
3204 1 -0.0215823 0.045183 0.065179 0.0821925 
175 1 0.109892 -0.0248278 -0.0552209 0.125467 
2011 1 0.180993 0.098864 0.026202 0.207892 
75 1 -0.0312656 0.13493 -0.059757 0.150846 
547 1 0.0107745 -0.0254305 -0.135373 0.138162 
4316 2 -0.0857564 0.076177 -0.0928895 0.147599 
559 1 0.0138336 0.0294325 -0.0352856 0.0479866 
717 1 -0.000322589 0.0743686 -0.0794914 0.108856 
242 1 -0.0123309 -0.0402969 0.112349 0.119992 
3510 2 -0.121326 0.0119343 0.160907 0.201875 
130 1 0.109876 -0.00101962 0.103027 0.150627 
143 1 0.0215138 0.0835514 -0.0493561 0.0993967 
202 1 -0.14657 -0.121066 -0.058588 0.198928 
182 1 -0.144623 0.0630899 0.0395668 0.16267 
84 1 0.0367172 0.00402809 0.000639429 0.036943 
3633 2 -0.0416238 -0.0289925 -0.0180463 0.0538403 
35 1 -0.17271 0.0421981 0.136196 0.223961 
3612 2 0.0103966 0.0376559 0.0207533 0.0442353 
40 1 0.127912 0.109334 0.0938939 0.192695 
4005 2 0.0788099 -0.0851122 0.0675025 0.134208 
718 1 -0.113873 -0.0132406 -0.0483345 0.124413 
134 1 0.00375812 0.0297858 0.101733 0.10607 
511 1 -0.0711627 -0.0340931 -0.00299292 0.0789647 
757 1 -0.013161 0.179785 0.00469215 0.180327 
3555 2 -0.0698694 0.101305 0.0655247 0.13942 
3481 2 -0.0145109 -0.0345332 -0.04186 0.0561726 
135 1 -0.0159333 -0.0430955 -0.0981959 0.108414 
369 1 0.108063 -0.0437777 0.0164039 0.117742 
2148 1 -0.0855046 -0.0693894 0.0791162 0.135592 
3462 2 0.0540162 -0.0629639 -0.16631 0.185853 
1914 1 0.000334625 0.0250048 -0.0305987 0.0395175 
3661 2 0.100538 -0.142756 -0.0036936 0.174645 
1871 1 0.0124427 0.0407634 -0.0384072 0.0573724 
320 1 -0.0844602 -0.0725115 -0.0549263 0.12413 
582 1 -0.0692421 -0.0928194 -0.0506498 0.126393 
766 1 -0.0174846 0.021924 -0.0309733 0.0417818 
3552 2 0.049241 0.00389221 -0.019286 0.0530261 
2290 1 -0.0165515 0.0596985 0.026133 0.0672369 
1794 1 -0.0437431 0.108375 0.0795927 0.141399 
753 1 -0.0245289 0.024626 0.0582278 0.0678129 
396 1 0.0291934 -0.00865643 0.173661 0.17631 
496 1 0.0118874 -0.047085 -0.0916384 0.103711 
480 1 -0.0416945 -0.0719579 0.101464 0.131192 
253 1 0.059108 -0.00854136 -0.0604035 0.0849428 
4033 2 -0.00381467 0.005865 -0.0636113 0.0639949 
347 1 -0.018872 -9.63403e-05 -0.102861 0.104578 
586 1 -0.105193 0.0378739 -0.101423 0.150952 
3671 2 -0.0234952 0.0221511 -0.0381983 0.0500181 
37 1 0.0741004 -0.16875 -0.0387871 0.18834 
782 1 0.0333098 -0.144072 -0.0654266 0.1617 
481 1 0.106659 -0.0659094 -0.069524 0.143366 
392 1 -0.0191188 0.0243632 -0.0864444 0.0918244 
333 1 0.0343297 -0.0274802 -0.0251118 0.0506389 
342 1 -0.0245125 -0.062308 -0.057411 0.0881996 
1179 1 0.0196107 -0.0804378 -0.0688144 0.107658 
517 1 0.0365433 -0.0965776 -0.0285541 0.107135 
1824 1 0.0283723 -0.050109 0.0682801 0.0893201 
34 1 0.129482 -0.0218303 0.0419418 0.137845 
398 1 -0.0146114 -0.0616767 -0.0797876 0.1019 
170 1 -0.0651114 -0.0602702 -0.0458022 0.099849 
235 1 0.0506009 -0.0707764 0.0925236 0.127005 
3852 2 -0.0544565 0.00841227 -0.0149392 0.0570916 
816 1 0.0469311 -0.0567447 -0.120801 0.141476 
3931 2 -0.167854 -0.119922 0.0715165 0.218337 
274 1 -0.0173087 -0.0696547 -0.0443021 0.0843448 
30 1 -0.0161709 -0.0635659 -0.0350118 0.0743501 
2066 1 0.0921409 -0.0325968 0.155709 0.183842 
1082 1 -0.033864 -0.152657 0.137848 0.208454 
1372 1 0.00866898 -0.0542684 0.10637 0.119728 
1265 1 0.0474299 -0.0264864 -0.0541148 0.0766782 
601 1 -0.046741 0.0714433 0.00961762 0.0859148 
540 1 -0.0617526 -0.111995 -0.0229943 0.129942 
589 1 -0.0365076 0.128877 0.145541 0.197799 
958 1 0.137987 -0.019575 0.0591923 0.151418 
504 1 -0.075867 0.0757207 -0.0364582 0.113219 
1349 1 -0.149736 -0.0125945 -0.0448505 0.156815 
9 1 0.0344312 -0.128259 -0.00901669 0.133106 
149 1 -0.0221892 0.0377502 -0.00797958 0.0445097 
163 1 -0.00550357 -0.225967 0.0743664 0.237953 
4247 2 0.0430905 -0.101637 -0.0735411 0.132647 
1584 1 0.176304 -0.00773187 -0.0653933 0.188199 
3570 2 -0.0427559 -0.110598 -0.0594535 0.132645 
237 1 0.00712133 0.0685782 0.116409 0.135295 
490 1 0.0381563 -0.113414 -0.00305629 0.119699 
50 1 0.00382129 0.0151064 0.0172638 0.0232561 
152 1 0.105367 -0.00668939 -0.161151 0.192657 
3652 2 -0.074905 -0.0537708 -0.0112695 0.0928927 
3823 2 0.0890118 0.0874185 -0.162449 0.204829 
902 1 0.00225056 0.0594405 0.00597933 0.0597829 
3574 2 -0.0202638 0.0500124 -0.0370544 0.0654591 
770 1 -0.0153764 -0.0491413 -0.0719425 0.0884705 
154 1 -0.064034 -0.0642958 -0.00582574 0.0909299 
116 1 0.0915559 -0.0496834 0.0998508 0.144295 
710 1 -0.0881879 -0.164379 -0.096048 0.209816 
1956 1 -0.0675553 -0.0117948 0.011087 0.0694676 
1810 1 -0.110676 -0.00980111 0.0279184 0.114563 
2072 1 -0.0573175 -0.0332416 -0.0311437 0.0732135 
1649 1 -0.0644977 0.0106221 -0.114776 0.132084 
186 1 -0.0774509 0.0863034 0.0643262 0.132608 
1063 1 -0.159847 0.161255 -0.150345 0.272319 
432 1 -0.180795 0.0509413 -0.135691 0.23172 
2495 1 0.0070006 -0.104829 0.0323103 0.109919 
3896 2 -0.0323037 -0.0172218 -0.110637 0.116536 
460 1 0.0868778 -0.0533848 -0.0203783 0.103985 
913 1 0.0444933 -0.00303194 -0.00685232 0.0451199 
1068 1 -0.081374 0.0175912 -0.0550139 0.0997883 
265 1 -0.090422 -0.0406933 -0.0725467 0.122862 
1287 1 0.0279799 0.0756508 0.0176163 0.0825606 
3799 2 0.12828 -0.0907965 -0.131132 0.204684 
554 1 0.118219 -0.0698386 0.013412 0.13796 
1414 1 0.00412661 0.063052 -0.0574926 0.0854283 
213 1 0.0111039 0.0127966 0.060685 0.0630057 
341 1 -0.117912 -0.0372248 -0.0116964 0.1242 
3682 2 0.00374153 0.0933431 -0.0590414 0.110512 
754 1 -0.0795859 0.0112481 0.0415118 0.0904636 
112 1 -0.0350628 0.0399609 0.00148584 0.0531835 
1041 1 -0.0114241 -0.00130508 -0.00618413 0.0130559 
119 1 0.0385602 0.0831637 -0.012572 0.0925265 
3998 2 0.0150137 -0.0273409 0.157243 0.160306 
995 1 -0.0622388 0.0417897 0.00901308 0.0755068 
4128 2 0.0634322 -0.0203923 0.221477 0.231282 
8 1 0.0142254 0.0748116 0.0115917 0.0770292 
94 1 0.0494652 0.0183636 -0.0157889 0.0550756 
48 1 0.0632032 -0.018478 0.0872076 0.109276 
437 1 0.046919 -0.0486092 -0.0482927 0.0830447 
3866 2 0.0685866 0.0112806 -0.0538842 0.0879482 
2206 1 0.0219688 0.0152509 -0.0124139 0.0294843 
3490 2 -0.0688327 0.0200586 -0.0798889 0.107343 
3072 1 -0.0364608 -0.105261 0.0549225 0.1242 
3002 1 0.091769 0.0847269 0.00198834 0.124917 
92 1 0.0400853 0.0965333 0.0736344 0.127857 
335 1 0.00583636 0.0570056 -0.0289027 0.0641799 
2192 1 -0.00381038 0.0298736 0.127794 0.131294 
1186 1 0.0368752 -0.0337596 -0.0292312 0.0579133 
1114 1 0.0537611 -0.054644 0.0218211 0.0797018 
1821 1 -0.100231 -0.0779909 -0.0552482 0.138497 
1922 1 0.0595824 -0.0874063 0.057489 0.120395 
451 1 -0.116973 -0.0277458 -0.0159374 0.121271 
3960 2 -0.0137253 -0.0381086 0.0506046 0.0648188 
100 1 -0.0520789 -0.013991 -0.0650554 0.0844995 
1180 1 0.0399466 -0.0517386 -0.102151 0.121274 
165 1 0.0717953 -0.013368 -0.0314689 0.0795208 
388 1 -0.0639031 -0.0152984 -0.0934241 0.114218 
3742 2 0.0290593 -0.0560936 0.0147012 0.0648618 
323 1 -0.121301 0.123574 0.0164216 0.173937 
288 1 -0.108891 0.0214524 -0.0255863 0.113895 
3942 2 -0.102885 0.10827 0.10886 0.18482 
66 1 0.0577884 0.0241433 0.07718 0.0993939 
340 1 0.073145 0.064928 -0.0437132 0.107129 
138 1 -0.0182678 -0.00755626 0.0405409 0.045104 
879 1 -0.0397807 -0.039417 -0.0579845 0.0806127 
3808 2 0.0746676 0.16006 -0.0405542 0.181216 
834 1 0.0661259 0.0287854 0.00192966 0.0721454 
18 1 -0.075253 -0.0637068 -0.0899761 0.133481 
3679 2 0.0950145 -0.0560643 -0.0735553 0.132595 
52 1 0.0152749 -0.13383 0.0161861 0.135668 
407 1 0.0232246 0.0660977 -0.0731482 0.101286 
360 1 0.0706838 -0.0274827 -0.0602758 0.0968745 
2885 1 -0.0706684 -0.00794768 -0.003374 0.0711939 
3526 2 -0.0503466 -0.231559 -0.030803 0.238962 
310 1 -0.0925632 -0.044122 -0.0451208 0.112029 
326 1 0.11402 -0.0276616 0.0855088 0.145181 
227 1 -0.0472639 -0.0632882 -0.0624738 0.100709 
2068 1 -0.122149 -0.00333188 -0.15603 0.198184 
456 1 0.0828222 -0.0158118 0.0542071 0.100239 
279 1 0.0161275 0.0477662 0.14449 0.153033 
305 1 0.00880462 0.0378664 -0.0233781 0.0453643 
49 1 0.00617232 0.0677335 0.033834 0.0759649 
3512 2 0.0323291 -0.147614 0.0307487 0.15421 
11 1 -0.078279 -0.18512 0.00662516 0.201099 
189 1 -0.117978 0.110352 0.0234554 0.163238 
2271 1 -0.0990818 -0.0763459 -0.0441396 0.132643 
319 1 -0.129956 -0.0609529 0.0149591 0.144318 
3566 2 0.0505961 0.0401931 -0.0635971 0.0906644 
71 1 0.0342954 -0.00569957 0.0587771 0.0682891 
1560 1 -0.0394315 0.0233792 0.0571347 0.0732517 
190 1 -0.0772175 0.0103891 0.121079 0.143982 
123 1 0.0827911 -0.00764415 0.10836 0.136582 
27 1 -0.024986 -0.0281749 -0.00449151 0.0379249 
162 1 0.0149573 0.0492053 -0.0739712 0.0900923 
255 1 -0.129165 -0.0140973 -0.00313601 0.12997 
304 1 -0.0604453 -0.00971056 -0.0855619 0.105208 
321 1 0.0204825 -0.0321797 0.140453 0.145541 
682 1 -0.105238 0.00475625 0.00489056 0.105459 
3469 2 0.0166187 0.00226926 -0.0800306 0.0817694 
3539 2 0.0129819 0.00359698 0.111605 0.112415 
128 1 0.0344268 -0.0841682 -0.0997899 0.135009 
3562 2 0.111358 0.0148595 0.142899 0.181774 
560 1 -0.185708 -0.0587162 -0.0729271 0.207975 
212 1 -0.0209722 0.0594103 -0.0742966 0.0974135 
355 1 0.0100128 0.043796 0.0736689 0.086287 
156 1 0.00523038 0.0750162 0.0536039 0.092348 
3620 2 0.072137 -0.0702575 0.00137695 0.100706 
1823 1 0.210367 -0.165691 -0.0882608 0.281953 
1805 1 -0.147459 0.0306542 0.099522 0.180523 
2599 1 -0.0841645 0.0476862 0.106457 0.143843 
327 1 0.117882 0.0342073 0.0495791 0.13238 
137 1 0.0754842 0.0455872 -0.0142981 0.0893336 
2334 1 0.00994543 0.0107596 0.0293964 0.0328456 
3698 2 0.0171643 -0.055683 -0.0220707 0.0623083 
555 1 -0.0303454 -0.0431155 -0.0328535 0.062122 
4178 2 -0.0171826 -0.0708759 0.0365279 0.0815655 
290 1 0.00292579 -0.0065505 -0.0292872 0.0301531 
284 1 0.0294767 0.0367393 -0.00314262 0.0472073 
3543 2 -0.0776195 -0.072208 0.00160872 0.106025 
366 1 0.0307485 -0.00894598 0.107674 0.112335 
55 1 0.0245154 0.0513183 -0.00502849 0.0570952 
273 1 -0.0360529 0.00722072 -0.0920824 0.099152 
3468 2 0.109834 -0.0262534 0.125999 0.169199 
316 1 0.154921 0.0495709 0.127157 0.206463 
81 1 -0.051052 -0.0441058 0.000562827 0.0674681 
322 1 0.0486312 -0.0551427 0.0530295 0.0906523 
239 1 0.0334545 -0.00979002 -0.0533093 0.063694 
734 1 -0.00410818 -0.0563124 -0.0708911 0.0906284 
384 1 0.0327556 -0.0937706 -0.0982418 0.139704 
3476 2 0.0103378 0.0929665 0.0144952 0.094656 
311 1 -0.0487669 -0.103778 -0.0442988 0.122925 
3471 2 0.0375411 0.0375544 0.0680458 0.0863128 
1938 1 0.0781157 -0.050238 0.0178683 0.0945791 
139 1 0.178491 0.0103567 -0.0424102 0.183752 
727 1 0.0937028 -0.119745 -0.0129334 0.152598 
1885 1 -0.00439525 0.0484541 -0.0283993 0.0563351 
2184 1 0.205953 0.101276 -0.05574 0.236179 
2494 1 -0.158533 0.0133608 -0.120363 0.199495 
2091 1 0.00169704 0.0256171 -0.065242 0.0701116 
281 1 0.0198319 0.101947 0.133688 0.16929 
863 1 -0.0252637 0.0692885 -0.0869563 0.11402 
176 1 -0.0574228 0.0373338 -0.086232 0.110123 
3710 2 0.00685214 0.0644197 -0.0628287 0.0902458 
3572 2 -0.0358766 -0.119422 -0.10427 0.162545 
4197 2 -0.0365135 0.0727997 -0.103007 0.131314 
343 1 -0.0585052 -0.0357533 -0.105945 0.126197 
282 1 -0.0525522 -0.0151438 -0.0696974 0.0885935 
1038 1 0.0176443 0.0633008 0.0808888 0.104218 
408 1 0.19424 -0.0218488 0.0151254 0.196049 
412 1 0.114742 -0.0236195 0.00122369 0.117154 
820 1 0.127671 0.040768 0.112466 0.174959 
585 1 -0.0916293 -0.0265828 -0.117143 0.15108 
3609 2 0.0889289 -0.13045 0.0360872 0.16195 
719 1 -0.0121487 0.0230679 -0.0173996 0.0313443 
608 1 0.060358 0.0970386 0.0929202 0.147288 
106 1 0.0137836 0.044584 0.0412176 0.0622624 
1047 1 -0.119267 -0.0544217 -0.0414635 0.137498 
3573 2 0.0469467 0.0552536 -0.0777709 0.106326 
751 1 -0.0102186 -0.0242233 -0.0833429 0.0873912 
259 1 0.0717045 -0.0148388 -0.0134705 0.0744525 
245 1 -0.0534796 -0.0370199 0.00881851 0.0656377 
613 1 -0.0546618 -0.095883 0.0912766 0.143223 
4296 2 -0.0141689 0.058116 0.019235 0.0628348 
272 1 -0.105526 -0.138608 -0.0441334 0.17971 
4239 2 -0.142591 -0.0900309 -0.0877224 0.190087 
88 1 0.0813396 0.108146 0.106966 0.172492 
4 1 0.0608898 0.0035816 -0.0649563 0.089105 
361 1 0.130989 0.0941176 -0.15409 0.22307 
358 1 -0.0610485 0.025406 0.063961 0.0919967 
194 1 0.0367875 0.0388224 -0.103835 0.1168 
2373 1 0.0169543 0.000366609 -0.0836622 0.0853636 
1982 1 0.0545371 0.0301266 0.0428929 0.075642 
3953 2 0.0148179 0.05711 0.0985342 0.114848 
414 1 0.0238877 0.0361144 -0.124092 0.131429 
3186 1 0.0917154 -0.047231 -0.0203176 0.105144 
177 1 0.0708495 -0.0506517 0.00260864 0.0871324 
1962 1 -0.0198502 0.0956883 0.162742 0.189829 
706 1 -0.00547361 0.0518041 -0.019941 0.0557788 
1544 1 0.0250587 -0.148067 0.0721473 0.166604 
4160 2 -0.0214228 0.0735856 -0.0297344 0.0822065 
19 1 -0.0655777 0.0732701 -0.0990698 0.139584 
3624 2 -0.043493 -0.010424 -0.0814071 0.0928839 
115 1 0.0579512 -0.0250694 -0.105208 0.122701 
1102 1 -0.0545133 -0.037611 0.0698953 0.0962894 
2048 1 0.116208 -0.00561044 -0.00327699 0.116389 
649 1 0.0285212 0.0990285 -0.0222291 0.105424 
113 1 -0.0122352 -0.0573154 0.0216142 0.0624655 
1150 1 -0.0105514 0.0056514 0.0430165 0.0446508 
620 1 0.0313594 -0.0902022 -0.00418027 0.0955894 
739 1 -0.0093295 -0.0379752 -0.0888814 0.0971034 
2412 1 -0.00723978 0.0206646 -0.00722386 0.0230569 
3746 2 0.106395 0.0272055 -0.177575 0.208789 
1225 1 -0.0216196 0.0176635 0.132795 0.135697 
241 1 0.124355 -0.0319515 0.00306973 0.128431 
83 1 0.0209618 -0.0265837 -0.00649691 0.0344717 
1006 1 0.0557848 0.0080556 -0.0110474 0.0574359 
4046 2 -0.0814359 -0.0881509 -0.0278887 0.123208 
96 1 -0.0321511 -0.158125 0.054357 0.17027 
411 1 0.130991 0.0454795 0.0598825 0.151039 
2454 1 -0.0586728 0.00209664 0.0552582 0.0806248 
404 1 -0.0616758 0.0912615 0.0815617 0.137058 
226 1 0.0395418 -0.0147945 0.0561485 0.0702502 
534 1 0.0552235 -0.0459106 0.123398 0.142775 
3538 2 -0.0684501 0.0762769 -0.0592907 0.118402 
761 1 0.0519872 -0.0436049 0.0722799 0.0991385 
246 1 0.0364761 -0.0296746 0.000931481 0.0470314 
2229 1 -0.0517777 -0.148855 -0.02886 0.160223 
146 1 0.00839451 -0.112935 -0.0644346 0.130294 
3608 2 0.00443891 -0.00229588 0.0240841 0.0245971 
503 1 0.022559 -0.0109317 0.003578 0.0253222 
505 1 0.136197 -0.0613268 0.0233719 0.151185 
1430 1 -0.0472908 -0.0641304 -0.0700967 0.106126 
97 1 -0.10738 0.0571005 -0.102286 0.158913 
1723 1 0.0282971 -0.00695742 -0.0938009 0.0982229 
3561 2 0.0558065 0.193125 -0.0642263 0.211037 
20 1 -0.0701634 -0.0267782 0.0191159 0.0774945 
263 1 -0.0531101 0.158874 -0.010185 0.167825 
817 1 0.104223 -0.0854211 0.0197518 0.136196 
1034 1 -0.00256281 0.042628 0.0123423 0.0444528 
353 1 0.0268062 -0.0625967 0.19175 0.203482 
1260 1 0.0465091 0.119336 -0.0526866 0.138492 
998 1 0.0471112 0.125871 -0.080968 0.156904 
1932 1 0.134573 -0.128248 -0.0475059 0.19187 
36 1 0.101707 -0.180144 -0.0768556 0.220687 
38 1 0.0392129 0.0478417 -0.0232385 0.0660796 
3130 1 -0.0541187 -0.0478064 -0.0579361 0.092579 
1973 1 0.0975668 0.0611204 0.139895 0.181178 
307 1 0.0856454 -0.0289416 0.0167285 0.091938 
2714 1 0.0681561 0.0244087 0.0165117 0.0742541 
28 1 0.0853244 0.0538309 -0.00979793 0.101361 
1937 1 0.00720776 0.0712336 -0.0641407 0.096126 
562 1 -0.0716729 -0.112035 -0.0157357 0.133927 
3011 1 -0.0257308 0.013832 -0.0191632 0.0349375 
410 1 0.0728495 -0.109679 0.0458472 0.139422 
693 1 0.0842225 0.0771423 0.197979 0.228561 
367 1 0.000687338 0.00582039 0.00624156 0.00856192 
318 1 0.0340164 0.0360031 -0.130724 0.139793 
735 1 0.146475 0.0107767 0.0251283 0.149005 
600 1 0.000256796 0.0224827 0.0295877 0.0371614 
3590 2 0.0259283 0.0974025 0.0456868 0.110665 
3636 2 0.0565202 -0.0707093 0.0384739 0.0983594 
26 1 -0.14683 0.0464279 0.0783725 0.172791 
1199 1 0.0211671 0.0859951 -0.0637944 0.109146 
614 1 0.0193288 0.00230603 -0.0719046 0.0744929 
459 1 -0.058254 -0.0728362 -0.06341 0.112781 
3645 2 0.0664245 0.121367 0.0650863 0.1529 
574 1 0.076701 -0.082935 0.11737 0.162902 
780 1 0.142024 0.0156644 0.0104111 0.143264 
161 1 -0.118171 -0.0524783 0.110178 0.169875 
309 1 0.107975 0.0919454 -0.0178751 0.142941 
365 1 0.0584611 -0.147237 -0.0647021 0.171123 
191 1 -0.0768852 0.0987679 -0.0124854 0.125787 
1766 1 -0.0761359 -0.0204499 -0.0214508 0.0817008 
2775 1 0.100407 -0.0512033 -0.0626141 0.128933 
1030 1 0.159309 -0.126584 -0.00997606 0.203721 
1505 1 0.165656 0.176938 0.125815 0.27309 
3872 2 -0.0551442 0.0222124 -0.00290007 0.0595204 
580 1 -0.0313734 -0.0325142 0.0155916 0.0477971 
2054 1 -0.0492262 -0.0935312 -0.0372068 0.112052 
2064 1 0.0987058 0.0147276 -0.0281418 0.10369 
529 1 -0.0053968 0.0377074 -0.0806995 0.0892378 
402 1 -0.0260096 0.0704813 0.0253309 0.0792829 
124 1 -0.0728797 -0.102204 0.0478665 0.134344 
744 1 0.114535 -0.019713 0.0584563 0.130092 
185 1 0.0609705 -0.0301135 0.0832658 0.107505 
315 1 0.0042506 -0.0317026 -0.0338062 0.0465401 
655 1 -0.00502463 -0.082772 0.170639 0.189721 
765 1 0.000380012 0.0412136 0.0281793 0.0499278 
140 1 0.00369066 0.0867567 -0.168051 0.18916 
59 1 -0.0140669 -0.00418284 0.0829918 0.0842793 
54 1 0.0128538 0.0589456 0.0265524 0.0659154 
3506 2 -0.0381505 0.131237 -0.120731 0.182359 
666 1 0.00429682 -0.185594 0.0664005 0.197161 
43 1 0.0927119 0.0743806 0.0950285 0.152179 
334 1 -0.0682369 -0.0571452 0.053847 0.104026 
267 1 0.140774 0.0396708 -0.124743 0.192229 
99 1 0.0785259 0.119507 0.0738344 0.160934 
1189 1 -0.115298 -0.017558 -0.183551 0.217469 
201 1 -0.0395404 -0.0643417 -0.0509452 0.0910973 
380 1 0.00135819 0.110754 -0.152855 0.188767 
1777 1 0.00303588 -0.0175153 -0.0555371 0.0583127 
2597 1 0.237752 -0.0169733 0.0414773 0.241939 
2484 1 0.142473 -0.0350302 -0.0281712 0.149397 
308 1 0.00969308 -0.00231006 -0.0754974 0.0761522 
3918 2 -0.0346307 0.135315 0.0850586 0.163538 
89 1 -0.100696 0.0440368 -0.0110226 0.110455 
300 1 -0.0190567 -0.00925397 0.015116 0.0260247 
3582 2 0.0524308 -0.00593747 -0.0312461 0.0613234 
712 1 -0.0594289 0.0845982 -0.0264272 0.10671 
3836 2 -0.0195792 0.0750745 -0.0547123 0.0949366 
268 1 -0.0270997 -0.0143634 0.0401107 0.0504932 
788 1 -0.0276373 0.12289 -0.0726569 0.145413 
4091 2 -0.0165676 0.148071 -0.0145416 0.149703 
371 1 0.00525586 0.0551465 0.12535 0.137045 
3505 2 0.0785112 -0.0163054 0.0120881 0.0810926 
266 1 0.136688 -0.0712577 -0.0925347 0.179788 
3571 2 0.0102272 -0.0696571 0.0745141 0.102514 
637 1 -0.0193749 -0.00423981 -0.0885614 0.0907551 
157 1 -0.0721046 -0.0260419 0.0934108 0.120842 
257 1 0.00158293 0.00881042 0.0185851 0.0206285 
571 1 -0.0138258 0.0473624 0.0108387 0.0505156 
665 1 -0.154692 -0.0392985 0.161693 0.227197 
448 1 -0.150364 -0.110064 0.0164325 0.187065 
827 1 0.0731115 0.0903616 0.02997 0.120036 
3475 2 0.0959942 0.0443661 0.0601029 0.121637 
73 1 -0.0393838 0.0700677 0.00146153 0.080391 
373 1 0.103457 0.00475815 0.0960526 0.141252 
247 1 0.0349736 -0.0245464 -0.0662869 0.0788646 
107 1 0.0611697 0.0535751 -0.0718886 0.108536 
675 1 -0.0695445 0.0652518 -0.10997 0.145559 
434 1 0.044947 0.0701132 -0.0232356 0.0864639 
159 1 -0.0591978 0.0856901 -0.0342262 0.109629 
32 1 0.0691161 0.120203 -0.00255448 0.138681 
3579 2 0.0805689 -0.0425324 -0.111772 0.144199 
394 1 -0.0626887 0.0089137 0.0623563 0.0888686 
260 1 -0.0157864 0.068376 0.0290436 0.0759475 
3972 2 -0.0784848 0.0524119 0.0832867 0.125871 
1801 1 -0.051114 0.0398682 0.0480437 0.0806865 
2122 1 0.00108958 0.0278875 0.16907 0.171358 
1966 1 -0.00146261 -0.0735649 -0.103415 0.126919 
291 1 -0.0111966 0.0105571 0.0458038 0.0483198 
2047 1 0.0902955 0.0466703 0.0359565 0.107816 
1899 1 0.0394155 0.0584214 -0.00717221 0.0708385 
622 1 -0.0280984 0.127281 -0.008885 0.130648 
1993 1 -0.00596718 -0.0105054 0.0116832 0.0168068 
62 1 0.0158065 0.0422672 0.0625111 0.0770974 
2187 1 -0.0695838 0.032099 -0.107103 0.131694 
4318 2 0.0881233 0.0216658 0.00935842 0.0912289 
44 1 0.000805179 0.0202958 0.0960233 0.0981481 
824 1 0.0495461 -0.0141655 0.076808 0.092493 
1282 1 0.0170605 -0.0025815 0.108072 0.10944 
3626 2 0.14403 0.0923408 -0.0351135 0.174655 
819 1 0.0567757 0.0959557 0.0694585 0.13136 
773 1 -0.124014 -0.162851 0.0532542 0.211509 
270 1 -0.0568613 -0.0522286 -0.044412 0.0890699 
14 1 -0.10873 -0.0538284 -0.00251268 0.121351 
3540 2 0.0617584 -0.0301317 0.000555591 0.0687192 
997 1 0.0581786 -0.0752748 -0.0661027 0.115847 
4275 2 -0.0372943 -0.0782038 -0.16158 0.183343 
164 1 0.0283204 0.0518296 0.149266 0.160526 
234 1 0.0475388 -0.0113809 0.0788665 0.0927868 
1125 1 -0.0171604 -0.0216363 -0.0722338 0.0773326 
3985 2 -0.0250862 -0.00351655 0.0445019 0.0512065 
328 1 0.0191392 -0.0067 -0.0415677 0.0462501 
3474 2 0.0222213 0.00308609 -0.0719498 0.0753664 
543 1 -0.0732743 0.00674706 0.00735626 0.0739511 
293 1 0.103637 -0.0750266 0.105809 0.166028 
3458 2 0.110912 -0.0350242 0.106278 0.157554 
390 1 -0.00764571 -0.00730327 -0.102878 0.10342 
3706 2 0.0937866 -0.22562 -0.132128 0.277773 
2169 1 0.0842712 0.0999013 -0.0653049 0.146105 
1786 1 0.0464401 0.00864832 -0.0394152 0.0615226 
1478 1 -0.0326196 0.0585655 0.131057 0.147207 
87 1 0.0290176 0.0101104 -0.0479534 0.0569541 
4090 2 -0.0613768 -0.0364244 0.0400495 0.0818402 
142 1 0.00836245 0.0242859 0.0206103 0.0329321 
1650 1 -0.0829976 -0.0906162 -0.0760096 0.14449 
153 1 0.0559676 -0.0108539 0.0122597 0.0583136 
374 1 0.031238 -0.0551022 -0.0685036 0.0932996 
602 1 0.0273471 -0.0741108 -0.113794 0.138526 
1277 1 -0.0647293 0.00333433 0.0349634 0.073644 
76 1 0.023373 -0.0234125 0.152036 0.155593 
1370 1 0.0584553 -0.0239048 0.082884 0.104203 
221 1 -0.0205825 0.080856 -0.00815206 0.0838319 
604 1 -0.0879575 0.0428014 0.0826689 0.128073 
1161 1 -0.0470979 -0.0764018 0.0264216 0.0935604 
1718 1 -0.0894047 0.0385954 -0.129327 0.16189 
178 1 -0.0593498 -0.265904 -0.0322783 0.274352 
295 1 -0.165622 -0.0837834 -0.00525373 0.185683 
1472 1 -0.103517 -0.00178257 -0.0200271 0.105451 
4159 2 -0.000595301 -0.0302049 -0.0227745 0.0378334 
3467 2 0.101059 -0.0126097 -0.0349044 0.107658 
3531 2 -0.0746579 -0.0925327 0.141255 0.184632 
2720 1 -0.0468563 0.0857499 -0.0731552 0.122067 
1851 1 -0.0236641 0.00115239 -0.00487083 0.0241876 
732 1 0.0180999 -0.072845 0.0267237 0.0796753 
446 1 -0.292101 0.101313 0.0736003 0.317812 
3878 2 0.0657704 0.071245 -0.0386979 0.104399 
3185 1 -0.187572 -0.00862576 0.0205845 0.188895 
110 1 -0.0843441 0.0134131 0.0277056 0.0897855 
2963 1 -0.0460396 0.0285744 -0.0288938 0.0614084 
2608 1 -0.0255297 -0.00444751 -0.00352264 0.0261526 
3301 1 0.0351033 0.01792 0.121367 0.127606 
3759 2 -0.0377479 -0.0585326 -0.0371802 0.0789515 
4171 2 -0.0947379 0.0287259 0.0442333 0.10843 
2118 1 -0.00822419 0.0529848 -0.0403154 0.0670847 
1742 1 0.00350449 -0.00365049 0.0469882 0.0472599 
642 1 0.0366703 -0.195241 0.0156664 0.199271 
3366 1 -0.0483358 0.0279303 0.094223 0.109519 
144 1 0.127504 0.156121 0.0151049 0.202136 
681 1 0.051927 -0.0201213 -0.116967 0.129547 
1666 1 0.0570442 -0.0647031 -0.0360608 0.0934928 
183 1 -0.0984368 -0.111488 -0.042525 0.154686 
694 1 -0.151692 0.00796838 0.0650011 0.165224 
444 1 -0.0586469 0.0452811 -0.140421 0.15877 
869 1 -0.0552652 -0.150471 0.142353 0.214383 
920 1 -0.0480116 -0.134699 0.00336458 0.143039 
53 1 0.0778032 -0.0114358 0.0502318 0.0933132 
1450 1 -0.263672 -0.0292145 -0.0971825 0.282525 
1579 1 0.057318 -0.101791 0.0601692 0.131404 
51 1 0.123299 -0.00334707 -0.0538446 0.134585 
4187 2 -0.106671 -0.0886405 -0.158664 0.210737 
1694 1 0.00355031 -0.127222 0.214593 0.249496 
1590 1 0.0372715 0.0147968 -0.0750029 0.0850503 
2005 1 0.0438816 -0.0827014 0.124289 0.155605 
736 1 -0.117472 0.0171009 -0.0220289 0.120737 
363 1 0.121293 0.00469316 0.00549901 0.121508 
230 1 0.00708667 0.020321 0.103238 0.105457 
2538 1 0.0803412 -0.0740102 -0.0381855 0.115717 
357 1 -0.0618205 -0.00012574 -0.0459364 0.0770192 
3849 2 0.17264 -0.0528412 -0.114652 0.213874 
4102 2 0.000208143 -0.127352 0.0535116 0.138138 
1032 1 0.071479 0.0381004 0.0598738 0.100726 
78 1 0.00729369 0.0629391 -0.0308155 0.0704566 
564 1 0.271955 -0.068385 0.0937564 0.29568 
797 1 0.152891 -0.0630033 -0.033881 0.168799 
1476 1 0.230907 0.0202484 -0.0252925 0.233169 
872 1 -0.103347 0.0116885 -0.0838157 0.133575 
475 1 -0.012689 -0.0421913 0.00884185 0.0449365 
4119 2 0.260687 -0.123021 -0.103715 0.306347 
576 1 -0.148264 0.0285212 0.0637038 0.163872 
507 1 0.0647536 -0.113317 0.0181606 0.131771 
248 1 0.0594915 -0.0420295 -0.0174608 0.0749039 
3597 2 -0.0770115 0.0658924 0.0940914 0.138296 
539 1 0.0145643 -0.0189477 0.0590813 0.0637318 
63 1 0.0703685 0.00536734 0.108768 0.129657 
57 1 -0.0375021 -0.0495457 0.017839 0.0646484 
854 1 -0.0480762 0.034102 0.0169226 0.0613241 
668 1 0.0994459 -0.136966 -0.101386 0.197303 
385 1 -0.0935107 -0.250674 0.0832573 0.280203 
752 1 0.0184405 0.0597547 -0.0158693 0.0645175 
3650 2 -0.0145724 0.157672 -0.0667611 0.171843 
3736 2 -0.0898411 -0.174384 0.0322901 0.198806 
254 1 -0.15074 -0.156455 0.0148927 0.217767 
3637 2 -0.00897661 -0.0123604 0.0758853 0.0774076 
731 1 -0.0149144 -0.0423267 -0.0109342 0.0461903 
2304 1 0.0968134 -0.13989 -0.0209064 0.171404 
610 1 -0.191959 0.0181028 -0.108548 0.221266 
292 1 -0.141936 0.0179597 0.00160338 0.143077 
313 1 -0.115529 0.0109547 0.0297901 0.11981 
2133 1 0.0020137 -0.121598 -0.0312101 0.125555 
646 1 -0.109784 -0.0351018 -0.0908029 0.14673 
271 1 0.0262717 0.109482 0.0571133 0.126247 
584 1 -0.0495366 0.115023 -0.0845374 0.151098 
3649 2 -0.0895777 0.0208462 0.0424813 0.101308 
1148 1 -0.0389407 0.126857 0.138684 0.191944 
779 1 -0.0969345 -0.0687873 0.0207496 0.120659 
621 1 -0.132199 0.0401952 0.0583535 0.149991 
16 1 -0.0386164 0.00103905 0.131715 0.137263 
3635 2 -0.0644283 -0.221318 0.0360129 0.233301 
790 1 0.0940741 0.0557125 0.109164 0.154501 