ITEM: TIMESTEP
44
ITEM: NUMBER OF ATOMS
4320
ITEM: BOX BOUNDS pp pp pp
0.0000000000000000e+00 1.9309999999999999e+01
0.0000000000000000e+00 1.9309999999999999e+01
0.0000000000000000e+00 9.6549999999999994e+00
ITEM: ATOMS id type c_displacement[1] c_displacement[2] c_displacement[3] c_displacement[4] 
4012 2 0.027889 -0.0732897 0.00573334 0.078626 
2361 1 -0.0289922 -0.0640655 -0.0572756 0.0906942 
79 1 -0.0610928 -0.0779449 0.0273419 0.102739 
781 1 0.0580858 -0.0309563 0.065316 0.0927277 
461 1 -0.000994946 0.00884235 -0.0376722 0.0387088 
3704 2 -0.00157241 -0.0700308 0.0190533 0.0725934 
629 1 -0.06593 0.0675843 0.0365042 0.101227 
1571 1 0.00746624 -0.00284575 -0.0290471 0.030126 
58 1 0.107966 0.0514111 0.130122 0.176725 
2372 1 -0.0534313 -0.0414582 -0.0105056 0.0684402 
372 1 -0.00184848 -0.0298025 -0.0179207 0.0348247 
3504 2 -0.0109725 -0.0788393 0.0369212 0.0877451 
4130 2 0.0117791 -0.0223147 -0.0707622 0.0751265 
1262 1 0.050141 0.0934014 -0.0714863 0.12786 
907 1 -0.0911377 -0.0614739 -0.137393 0.17596 
3659 2 0.0126458 0.172049 -0.0943548 0.196631 
1298 1 0.0705887 0.0558167 -0.0953907 0.13114 
1716 1 0.0222802 0.0876221 -0.0603489 0.108702 
1182 1 0.0288072 0.0153863 -0.00365472 0.0328626 
683 1 -0.0142825 -0.0401362 0.0570079 0.0711674 
1958 1 0.0152749 -0.0665106 0.058094 0.0896208 
1554 1 0.0217772 -0.0728706 -0.0673941 0.101619 
1037 1 -0.0193253 -0.162589 0.0199323 0.164942 
749 1 -0.102559 -0.0672542 0.0493536 0.132202 
3628 2 0.0541816 0.0540283 0.0147088 0.0779169 
946 1 -0.0383913 -0.00388129 -0.0613531 0.0724787 
2232 1 0.00782537 -0.0401745 -0.0911808 0.0999458 
7 1 0.0399244 0.0154923 0.0188422 0.0467867 
501 1 0.00538455 0.077178 -0.0816203 0.11246 
179 1 -0.0272575 -0.02959 -0.0913677 0.0998328 
714 1 -0.0778955 -0.0430977 0.118002 0.147816 
4166 2 0.00964153 -0.0616838 -0.0047156 0.0626106 
276 1 -0.0290201 0.0242541 0.103403 0.110102 
767 1 -0.0624438 -0.0250277 0.0445784 0.0807022 
3890 2 -0.169771 -0.0459528 -0.112669 0.208874 
6 1 0.0087489 0.120199 -0.0252954 0.123143 
2086 1 -0.0150823 0.00342378 0.046068 0.0485949 
224 1 0.0383017 -0.0340817 0.00333327 0.051378 
3660 2 0.033591 0.0263268 0.0438982 0.061225 
596 1 -0.0799086 -0.0101811 -0.013017 0.0815995 
1214 1 0.0074801 -0.0622382 -0.0673745 0.0920265 
3686 2 0.0363866 0.0228891 0.0208314 0.0477686 
427 1 -0.0723933 0.0767132 0.0899071 0.138597 
350 1 0.0120967 0.0578915 -0.0110461 0.0601646 
85 1 -0.0297123 0.00741798 0.0200465 0.036602 
598 1 -0.0287523 -0.03931 0.113586 0.123587 
3554 2 0.0208127 -0.0302282 -0.03408 0.0500835 
29 1 -0.0581026 0.0613118 0.0312623 0.0900688 
464 1 -0.0184534 0.0256296 -0.0651058 0.0723614 
3619 2 -0.0430964 0.0423252 0.0854015 0.104605 
12 1 0.0100818 -0.159282 0.00115475 0.159605 
364 1 -0.115093 0.0132738 -0.0826789 0.142332 
1849 1 -0.0755324 -0.0920445 -0.0266917 0.122024 
3663 2 -0.150281 0.0523938 -0.0502262 0.16689 
3517 2 0.0300911 0.00854918 0.0991685 0.103985 
25 1 0.15709 -0.0178957 -0.0441378 0.164152 
4163 2 0.0153048 0.00700075 -0.0246538 0.0298505 
399 1 0.020912 0.0177793 -0.0224487 0.0354592 
4265 2 -0.0517466 0.0643474 0.0345631 0.0895149 
527 1 0.026418 -0.00552744 -0.0381739 0.0467516 
200 1 0.0877593 0.0363381 0.0684464 0.117077 
1951 1 0.121029 0.10066 0.0481997 0.164632 
644 1 0.0331823 -0.0463661 0.0579115 0.0812688 
193 1 0.0294343 0.0898865 0.00507858 0.0947193 
550 1 0.00702617 -0.0339397 -0.0306879 0.0462927 
69 1 0.0177318 -0.0119269 -0.000899944 0.0213887 
842 1 -0.0814419 0.0380806 -0.0649406 0.110906 
578 1 -0.0265674 0.0118784 0.0126375 0.0317274 
172 1 -0.0127852 -0.0681485 0.0226129 0.0729316 
381 1 -0.00985012 0.0328259 -0.0737997 0.0813693 
3524 2 0.0611368 -0.105346 0.135535 0.182223 
688 1 -0.0862006 0.0955632 -0.02251 0.130651 
3651 2 -0.0374485 0.0519199 0.0288845 0.0702309 
2367 1 0.0464799 0.0196522 -0.0103501 0.0515142 
1244 1 -0.0813718 -0.00306922 0.017344 0.0832563 
796 1 -0.0902057 0.0975055 -0.0348721 0.137333 
691 1 0.0559499 -0.0138828 0.0184851 0.0605377 
421 1 0.0403992 0.0351931 0.0898815 0.104639 
597 1 -0.0407409 0.0600018 -0.0120808 0.0735254 
3617 2 0.0283207 0.00801513 -0.0500828 0.0580912 
120 1 0.0763933 0.0895993 0.0498381 0.127859 
769 1 -0.0529731 -0.00312384 0.0551041 0.0765008 
2142 1 -0.0118384 0.0306808 -0.0283209 0.0433997 
3611 2 0.14124 0.048139 0.133464 0.200196 
1915 1 -0.0211614 0.0474335 0.0287543 0.0593679 
2140 1 -0.00941334 -0.00530595 0.102251 0.10282 
3828 2 0.108942 0.0297556 0.0460189 0.121948 
3204 1 0.00529278 0.0745247 0.0366901 0.0832353 
175 1 0.094054 0.0502281 -0.036137 0.112583 
2011 1 0.0999738 0.0286251 -0.0403751 0.111554 
75 1 0.00222407 0.0955567 -0.0160095 0.0969141 
547 1 -0.0244947 -0.0252175 -0.0771767 0.0848066 
4316 2 -0.0598855 0.0370489 -0.0336639 0.0780522 
559 1 0.0386883 0.0479755 -0.0174014 0.0640409 
717 1 -0.00808279 0.073753 -0.0430542 0.0857817 
242 1 0.00789764 -0.0332902 0.0651016 0.0735447 
3510 2 -0.0678012 0.0299486 0.0817419 0.110343 
130 1 0.0873793 -0.0376945 0.119549 0.1528 
143 1 -0.0178836 0.0529704 -0.0685292 0.0884417 
202 1 -0.133775 -0.0603399 -0.0603835 0.158691 
182 1 -0.120865 0.0434613 -0.00763966 0.128668 
84 1 0.0401143 -0.0445622 -0.0452743 0.0751312 
3633 2 0.0201986 -0.0691937 0.0454835 0.0852321 
35 1 -0.138152 -0.00304559 0.113755 0.178985 
3612 2 0.0274461 0.0411016 -0.058641 0.0766903 
40 1 0.142716 0.0883353 0.0726738 0.1829 
4005 2 0.0546804 -0.0772815 0.0290022 0.0990126 
718 1 -0.0562921 0.00495337 -0.0524974 0.0771318 
134 1 -0.0256688 -0.0189818 0.0866258 0.0923213 
511 1 -0.0471073 -0.0639604 0.0345464 0.0866227 
757 1 0.051484 0.141224 0.0022788 0.150333 
3555 2 -0.0644533 0.0531268 0.034457 0.0903547 
3481 2 -0.0300217 -0.00111969 -0.040908 0.0507545 
135 1 0.0134287 -0.0466534 -0.0357453 0.0602876 
369 1 0.040472 -0.0344482 0.105941 0.118525 
2148 1 -0.0866214 -0.0499907 0.00852832 0.100375 
3462 2 0.0446784 -0.0704944 -0.152918 0.174211 
1914 1 -0.00413507 0.0453389 0.0139492 0.0476161 
3661 2 0.0751154 -0.108978 0.0174353 0.133501 
1871 1 0.0172336 0.029523 -0.0415216 0.0537834 
320 1 -0.0428932 -0.0235313 -0.0415973 0.0642174 
582 1 -0.00744573 -0.10362 -0.0269898 0.107336 
766 1 -0.028963 0.0138737 0.00325084 0.0322786 
3552 2 -0.00585691 -0.0443963 0.00998476 0.0458806 
2290 1 -0.0449088 0.0341387 0.0341318 0.0659336 
1794 1 0.011568 0.0277219 0.0653561 0.0719288 
753 1 -0.0659681 0.0413696 0.0383098 0.0867807 
396 1 -0.00233089 -0.0158854 0.12029 0.121357 
496 1 -0.00544288 0.0211209 -0.087108 0.0897971 
480 1 -0.0432863 -0.054213 0.0747638 0.101992 
253 1 0.0478887 -0.00212458 -0.00651568 0.0483766 
4033 2 -0.0123397 0.0241627 -0.0520728 0.058717 
347 1 -0.0585779 0.0264023 0.0126912 0.0654944 
586 1 -0.0876034 0.043965 -0.108802 0.146442 
3671 2 0.0762559 0.0129765 -0.0765132 0.108801 
37 1 -0.000612319 -0.0932313 0.00642281 0.0934542 
782 1 0.029476 -0.11023 -0.0197789 0.115805 
481 1 0.0669002 -0.00863222 -0.0742404 0.100308 
392 1 -0.0455369 0.044773 -0.095998 0.115299 
333 1 0.0475014 -0.0460505 -0.0188107 0.0687814 
342 1 -0.0139414 -0.019174 -0.0341058 0.0415356 
1179 1 -0.00812653 -0.00368228 -0.059714 0.0603769 
517 1 -0.00411409 -0.0756863 -0.0273351 0.0805763 
1824 1 0.0614898 -0.0451326 0.111941 0.135458 
34 1 0.0455222 0.0144738 0.0350334 0.0592377 
398 1 -0.00588448 -0.0383378 -0.0648508 0.0755648 
170 1 -0.0660783 -0.0612218 -0.0519597 0.103992 
235 1 0.0306585 -0.118016 0.0620065 0.136794 
3852 2 -0.0230037 -0.0218195 -0.0113427 0.0336737 
816 1 0.0402094 -0.0166733 -0.04917 0.0656695 
3931 2 -0.113707 -0.113302 0.106778 0.19279 
274 1 -0.0274587 -0.0465178 -0.0128415 0.0555229 
30 1 0.00859439 -0.0115397 -0.0313021 0.0344507 
2066 1 0.0697393 -0.0428846 0.118773 0.144256 
1082 1 0.00458013 -0.0670731 0.0661488 0.0943156 
1372 1 0.0060374 -0.0435991 0.0946961 0.104426 
1265 1 0.0857881 -0.0364405 -0.0864295 0.127112 
601 1 0.00924651 0.0664871 0.031141 0.0739986 
540 1 0.00386399 -0.00257417 0.0110611 0.011996 
589 1 -0.0426526 0.136641 0.0841319 0.166037 
958 1 0.101868 -0.00757571 -0.0112407 0.102766 
504 1 -0.0812188 0.0408597 -0.0223478 0.0936239 
1349 1 -0.0620561 0.0276106 -0.0542607 0.0869341 
9 1 0.0121633 -0.109782 0.0312891 0.1148 
149 1 -0.000464711 0.0717637 -0.00797747 0.0722072 
163 1 0.0255243 -0.103642 0.0201572 0.108625 
4247 2 0.0136236 -0.0561149 -0.0503916 0.0766407 
1584 1 0.15252 -0.0118825 -0.0951609 0.180164 
3570 2 -0.0280204 -0.0802292 0.0033312 0.0850468 
237 1 0.0194303 0.0513592 0.0420774 0.0691796 
490 1 -0.0134237 -0.0632613 -0.0187802 0.0673415 
50 1 -0.046455 -0.0537344 0.0274644 0.076156 
152 1 0.0536499 0.00826621 -0.0414952 0.0683264 
3652 2 -0.0226818 -0.0254911 0.00270063 0.034228 
3823 2 0.0290186 0.0857802 -0.106519 0.139809 
902 1 0.030445 0.0629862 -0.0194816 0.0726202 
3574 2 -0.0369702 0.0574093 -0.0599316 0.0908539 
770 1 -0.0122753 -0.064972 -0.0359191 0.0752477 
154 1 -0.0121112 -0.033743 -0.0129449 0.0381161 
116 1 0.0894709 -0.057912 0.0414106 0.11434 
710 1 -0.0839251 -0.140777 -0.0764008 0.180828 
1956 1 -0.0179576 0.0366979 -0.0456314 0.0612489 
1810 1 -0.110753 -0.0376228 0.0765963 0.139817 
2072 1 -0.054569 -0.0308189 7.7122e-05 0.0626704 
1649 1 -0.0408402 0.0185682 -0.0570227 0.0725554 
186 1 -0.047323 0.01893 0.0763289 0.0917819 
1063 1 -0.0489661 0.079548 -0.173041 0.196644 
432 1 -0.109566 0.0755505 -0.119199 0.178664 
2495 1 -0.0690827 -0.10457 0.0744555 0.145777 
3896 2 0.00577914 -0.0126145 -0.0612211 0.0627738 
1071 1 -0.00505458 -0.0319629 -0.0422857 0.0532471 
913 1 0.0585554 -0.0600917 0.0309903 0.0894435 
1068 1 0.0115142 0.0174221 -0.0121257 0.0241483 
265 1 -0.0730194 0.00831353 -0.0392445 0.0833132 
1287 1 0.0326102 0.108874 0.0153543 0.114686 
3799 2 0.0554793 -0.0575032 -0.110792 0.1366 
554 1 0.046564 -0.0666845 -0.0559075 0.0986948 
1414 1 -0.021196 0.0424767 -0.0723038 0.086495 
213 1 0.00218238 -0.0199399 0.0208022 0.028898 
341 1 -0.0739498 -0.0393483 -0.0368862 0.0915284 
3682 2 -0.0368643 0.0310719 -0.0509076 0.0701143 
754 1 -0.0687497 0.0753318 0.00613448 0.102172 
112 1 -0.0669934 0.0466632 0.00421 0.0817514 
1041 1 -0.0185827 -0.0581001 0.0294056 0.0677173 
119 1 0.0154871 0.0206216 0.066679 0.0714926 
415 1 -0.0132361 0.0447292 -0.0426313 0.0631927 
995 1 -0.0623872 0.0435608 0.0246001 0.0799679 
4128 2 -0.007639 -0.0383638 0.135084 0.140634 
8 1 0.0489234 0.0609593 0.000927031 0.078169 
94 1 0.017491 -0.0643774 -0.00504675 0.0669019 
48 1 0.0321984 0.0259737 0.0221558 0.0469281 
3998 2 0.0106797 0.0328964 0.0713649 0.0793044 
3866 2 0.0571908 0.0302652 -0.0201853 0.0677807 
2206 1 0.0200866 -0.00361471 -0.0205688 0.0289761 
3490 2 -0.0932399 0.00972496 -0.0157157 0.0950538 
3072 1 -0.0104197 -0.0616068 0.0472052 0.078309 
3002 1 0.0785369 0.0915304 0.0397484 0.126987 
92 1 0.0383759 0.0889714 0.105843 0.143497 
335 1 -0.0401509 0.0762994 -0.0467682 0.0980865 
4034 2 -0.164804 -0.149953 0.0456498 0.227443 
1186 1 0.0233092 -0.00388232 0.00306534 0.0238282 
1114 1 0.0636722 0.026486 0.0306188 0.0754531 
1821 1 -0.0370134 -0.0632617 -0.0666572 0.0990718 
1922 1 0.0268635 -0.0858275 0.0308778 0.0950865 
451 1 -0.0984474 -0.0477797 -0.00362122 0.109489 
3960 2 0.00141679 -0.0358999 0.0241057 0.0432654 
100 1 -0.0266074 0.0480055 -0.0806934 0.0975905 
1180 1 0.0074287 -0.0478172 -0.0797169 0.0932548 
165 1 0.066838 -0.0300842 0.000591425 0.0732989 
388 1 -0.0722089 -0.0555822 -0.0432812 0.10088 
3742 2 0.0798459 -0.0490159 0.024071 0.0967334 
323 1 -0.114796 0.134324 -0.0635143 0.187764 
288 1 -0.0613339 0.0149348 0.00575185 0.0633876 
3942 2 -0.0645971 0.0578889 0.0945016 0.128275 
66 1 0.0620451 0.0326903 0.0556525 0.089529 
340 1 -0.00445067 0.00810405 -0.0238579 0.0255868 
138 1 -0.0214664 -0.00684978 0.0163053 0.0278134 
879 1 0.00480874 -0.0131136 -0.072601 0.0739324 
3808 2 0.067299 0.0415144 -0.012062 0.079988 
834 1 -0.0054992 0.0208002 0.0189802 0.0286904 
18 1 -0.0689532 -0.0603101 -0.0952905 0.132182 
3679 2 0.0334362 -0.031009 -0.0249201 0.0519668 
52 1 0.0572309 -0.0337687 -0.009508 0.0671275 
407 1 -0.0163016 -0.00530865 -0.0697389 0.0718153 
360 1 0.0575876 -0.0473295 -0.100096 0.124802 
2885 1 -0.102105 -0.0582188 -0.0218966 0.119559 
3526 2 -0.0127429 -0.186981 -0.0546652 0.195224 
310 1 -0.0727522 -0.0365912 0.000181317 0.081436 
326 1 0.100576 -0.00821873 0.056149 0.115481 
227 1 -0.0170302 -0.0325414 -0.0244121 0.0441013 
2068 1 -0.111191 -0.0402555 -0.0961912 0.152436 
456 1 0.0297356 -0.0083932 0.0336092 0.0456534 
279 1 -0.0225525 0.0225199 0.0905705 0.0960144 
305 1 -0.0453567 0.0279025 -0.0434792 0.0687476 
49 1 0.00210075 0.0871542 0.0551366 0.103152 
3512 2 0.00756653 -0.091275 0.0429559 0.101161 
11 1 -0.0638453 -0.156863 0.0229878 0.170911 
189 1 -0.0487401 0.0937492 0.0658553 0.124505 
2271 1 -0.103949 -0.031748 -0.0148848 0.109704 
319 1 -0.0855483 -0.0518655 -0.00592661 0.100218 
3566 2 0.0078709 0.0635865 -0.0565997 0.0854911 
71 1 0.00934743 0.0126318 0.0269997 0.0312397 
1560 1 -0.0229249 -0.0356863 0.0485474 0.0644664 
190 1 -0.01874 -0.0262722 0.0694362 0.076569 
123 1 0.0694629 0.0128572 0.0701717 0.0995714 
27 1 -0.0403052 0.000208942 -0.03282 0.051978 
162 1 -0.0120534 0.00214403 -0.0978866 0.0986492 
255 1 -0.0912737 0.0110012 -0.0333395 0.0977929 
304 1 -0.0840147 -0.00226245 -0.0495693 0.0975742 
321 1 0.00511683 -0.0691201 0.140612 0.156766 
682 1 -0.0541455 0.037229 0.0046635 0.0658747 
3469 2 0.0606089 0.0496376 -0.0861491 0.116443 
3539 2 0.0281939 0.0355699 0.0903248 0.101088 
128 1 0.0606202 -0.0438948 -0.0601427 0.0960141 
3562 2 0.102815 0.0278284 0.0829934 0.13503 
560 1 -0.122427 -0.0532047 -0.00367743 0.133539 
212 1 -0.0415937 0.0480746 -0.027011 0.0690709 
355 1 0.0217057 0.0632346 0.10476 0.124275 
156 1 0.0479347 0.0672701 0.0660822 0.105782 
3620 2 0.00912377 -0.0541418 -0.0109908 0.0559945 
1823 1 0.166746 -0.119526 -0.0888474 0.223572 
1805 1 -0.0439964 0.071687 0.0896925 0.122961 
2599 1 -0.0539644 0.0123004 0.030804 0.0633431 
327 1 0.0407251 0.0059401 0.0104703 0.042467 
137 1 0.0602224 0.00768682 0.0502215 0.0787911 
2334 1 -0.00927468 0.0437008 0.0403456 0.0601959 
3698 2 0.0370028 -0.0712944 0.0135425 0.0814586 
555 1 -0.0133579 -0.047577 -0.0517668 0.0715668 
4178 2 0.0243258 -0.072221 0.0474535 0.0897744 
290 1 -0.0105511 0.0501731 -0.0138487 0.0531079 
284 1 -0.00296532 0.013209 -0.054022 0.0556924 
3543 2 -0.00767429 -0.0143369 0.0375579 0.0409272 
366 1 0.031872 -0.0429325 0.0489898 0.0725192 
55 1 -0.0201401 0.0410851 -0.0126577 0.0474744 
273 1 -0.0226687 -0.0638695 -0.0177441 0.0700574 
3468 2 0.067988 0.0122583 0.0466161 0.0833409 
316 1 0.104702 -0.0158222 0.105856 0.149728 
81 1 -0.0626431 0.00962935 0.0177573 0.0658195 
322 1 0.0355052 -0.0299851 0.0143545 0.0486393 
239 1 -0.019144 0.0205389 -0.0592553 0.0655708 
734 1 -0.0354587 -0.0781108 -0.0454447 0.0970765 
384 1 0.0929352 -0.0574775 -0.0691673 0.129324 
3476 2 -0.00293222 0.0959971 0.00840146 0.0964086 
311 1 -0.0168079 -0.0462695 -0.0785975 0.0927412 
3471 2 0.00622643 0.0283982 0.0340074 0.0447407 
1938 1 0.036705 -0.0646401 -0.00545569 0.0745343 
139 1 0.137548 -0.0413342 -0.00901462 0.143907 
727 1 0.0676259 -0.0454981 0.0544283 0.0980091 
1885 1 -0.00118636 0.0332071 -0.0700197 0.0775041 
2184 1 0.119082 0.162765 -0.0952129 0.223021 
2494 1 -0.149923 -0.0587309 -0.144876 0.216599 
2091 1 -0.0338409 -0.0027874 -0.0608059 0.0696443 
281 1 0.0374646 0.100237 0.108423 0.152337 
863 1 0.0179732 0.0839198 -0.0366508 0.0933212 
176 1 -0.0762581 0.0638158 -0.0446873 0.109017 
3710 2 -0.00548487 0.0665224 -0.0438561 0.0798666 
3572 2 -0.000892557 -0.0929913 -0.0662611 0.114187 
4197 2 -0.0747768 0.0566792 -0.0435688 0.103452 
343 1 -0.0229849 -0.0402447 -0.109324 0.118742 
282 1 -0.0304128 -0.0378907 -0.018973 0.0521596 
1038 1 -0.0148628 0.0732395 0.0292083 0.0802375 
408 1 0.165452 0.056837 -0.0224431 0.176376 
412 1 0.137897 -0.0549852 -0.0142716 0.14914 
820 1 0.110352 0.0110098 0.0443359 0.119433 
585 1 -0.0725976 -0.0399306 -0.0777698 0.113635 
3609 2 0.0517981 -0.0821178 0.0125419 0.0978963 
719 1 -0.0169514 0.068049 -0.0254357 0.0745989 
608 1 0.00995806 0.021187 0.0105685 0.0256855 
106 1 -0.0133586 0.0588155 0.0532806 0.080477 
1047 1 -0.113774 -0.0329741 -0.0229338 0.120656 
3573 2 0.0102018 0.0320567 -0.0661698 0.0742304 
751 1 -0.016778 -0.0179049 -0.0636242 0.0681919 
259 1 0.0653451 -0.0506364 0.0126076 0.083624 
245 1 -0.0802647 -0.0281481 -0.0409958 0.0944214 
613 1 -0.0472506 -0.0243356 0.127658 0.13828 
4296 2 -0.0299925 0.0462479 0.0262057 0.0610341 
272 1 -0.104486 -0.103382 -0.0197856 0.148313 
4239 2 -0.0415594 -0.109646 -0.061883 0.132585 
88 1 0.0733037 0.0939716 0.0822728 0.14482 
4 1 0.0978642 -0.0106942 -0.0689572 0.120195 
361 1 0.0751969 0.101624 -0.136279 0.185887 
358 1 -0.0449184 -0.0290512 -0.0381748 0.0657187 
194 1 0.00497861 0.0369818 -0.0793095 0.0876495 
2373 1 0.014034 -0.00922045 -0.0967123 0.0981592 
1982 1 0.0179628 -0.00720078 0.0212505 0.0287419 
3953 2 -0.000491471 0.0209471 0.0676193 0.0707912 
414 1 0.0193419 0.018145 -0.0528905 0.0591672 
3186 1 0.0845818 -0.0845795 0.0150783 0.120562 
177 1 0.0574193 -0.0340563 0.0625498 0.0914838 
1962 1 -0.0395005 0.0525833 0.0836777 0.10643 
706 1 0.0248346 -0.000984668 -0.0369958 0.0445692 
1544 1 -0.0115965 -0.0753562 0.0372637 0.0848623 
4160 2 -0.0324194 0.0149623 -0.0196369 0.0407492 
19 1 -0.0422355 -0.00799109 -0.0921385 0.101672 
3624 2 -0.00212612 -0.0140003 -0.0602264 0.0618688 
115 1 0.106259 -0.0718717 -0.0273859 0.131174 
1102 1 -0.0744512 -0.0154501 0.00384153 0.0761344 
1492 1 0.0212784 0.0770505 0.0213236 0.0827299 
649 1 0.0473834 0.115724 -0.0460986 0.133275 
113 1 0.0447864 -0.0177227 -0.00735159 0.0487234 
1150 1 0.0214985 -0.00780646 0.0540484 0.0586886 
620 1 -0.0397381 -0.00831151 -0.00571191 0.0409978 
739 1 -0.0894214 -0.027004 0.0218475 0.0959308 
2412 1 0.0143752 0.0512731 -0.00873948 0.0539626 
3746 2 0.083276 0.0300522 -0.150379 0.174505 
1225 1 0.0104591 0.0627759 0.0846683 0.105919 
241 1 0.090778 0.0224992 -0.00247752 0.0935574 
83 1 0.0301107 0.0200277 -0.0220259 0.0423427 
1006 1 0.0319746 0.00559198 -0.00440911 0.032758 
4046 2 -0.0612322 -0.0868869 -0.0394853 0.113392 
96 1 0.0175994 -0.107156 0.00243649 0.108619 
411 1 0.0650853 0.0594323 0.0792787 0.118547 
2454 1 -0.0609529 0.013221 -0.00158827 0.0623905 
404 1 -0.075791 0.0594905 0.0699192 0.119047 
226 1 0.0539185 -0.0190305 0.0749303 0.0942545 
534 1 0.0394697 -0.0199476 0.112622 0.120994 
3538 2 0.000177838 0.0418461 -0.0313628 0.0522948 
761 1 0.066167 -0.0202048 0.0391549 0.0794947 
246 1 0.0857808 -0.0717311 0.0283004 0.115346 
2229 1 0.0047056 -0.104339 0.0147561 0.105482 
146 1 -0.00463821 -0.0122384 -0.0538874 0.055454 
3608 2 0.0690595 -0.0120276 0.00224883 0.0701351 
503 1 -0.0357151 -0.00130871 0.0414756 0.0547495 
505 1 0.100437 -0.0349432 0.0052126 0.106469 
1430 1 -0.0870977 -0.0373355 -0.0188321 0.0966157 
97 1 -0.0246651 0.0387166 -0.0739432 0.0870341 
1723 1 0.0346348 0.00245496 -0.0838721 0.0907752 
3561 2 0.0474101 0.119836 -0.0308178 0.132507 
20 1 -0.0639789 -0.0724523 -0.010695 0.0972472 
263 1 -0.0594105 0.127474 0.00670534 0.140798 
817 1 0.0886345 -0.0599669 0.01525 0.108096 
1034 1 0.0240902 0.0195324 0.0168777 0.0353088 
353 1 0.0399291 -0.00363106 0.115588 0.122344 
1260 1 0.0542037 0.0993886 -0.0230617 0.115533 
998 1 0.0244973 0.0585591 -0.0508753 0.0813485 
1932 1 0.0884305 -0.133576 -0.0219512 0.161692 
36 1 0.0900827 -0.113057 0.00605106 0.144683 
38 1 -0.0106858 -0.00459032 -0.0742884 0.0751933 
3130 1 -0.0193589 0.00588168 -0.0474893 0.0516197 
1973 1 0.0795709 -0.030879 0.134505 0.1593 
307 1 -0.00167286 -0.0567942 -0.0689783 0.0893666 
2714 1 0.0871067 0.0387047 0.0182976 0.0970589 
28 1 0.0478835 0.0181355 0.00643956 0.0516061 
1937 1 -0.000734734 0.0244965 -0.0431349 0.0496109 
562 1 -0.0738238 -0.106827 0.00491327 0.129946 
3011 1 -0.0596749 -0.00897064 0.00681057 0.0607284 
410 1 0.0855007 -0.0388242 0.0306595 0.098781 
693 1 0.0656673 0.104279 0.0852894 0.149869 
367 1 -0.024907 0.00419187 -0.00191769 0.02533 
318 1 0.0759787 0.0327849 -0.0521323 0.0978028 
735 1 0.0949077 -0.029743 0.0190707 0.101271 
600 1 -0.0231424 0.0687808 0.0330988 0.0797615 
3590 2 -0.0508427 0.0494288 -0.0371097 0.0800332 
3636 2 0.0441109 -0.100633 0.0505723 0.120956 
26 1 -0.0855599 0.0660771 0.0573339 0.122368 
1199 1 0.0404315 0.00903716 -0.0638566 0.0761186 
614 1 -0.0277981 -0.0387783 -0.0131562 0.0494932 
459 1 0.0387633 -0.0741205 -0.0569247 0.101177 
3645 2 0.0698628 0.102691 0.0488938 0.13348 
574 1 0.0392919 0.030168 0.011215 0.0507911 
780 1 0.0961699 -0.00915516 -0.00642138 0.0968179 
161 1 -0.0668848 0.0235967 -0.0183847 0.0732692 
309 1 0.115705 0.0626312 0.0184305 0.132853 
365 1 0.0118857 -0.130424 -0.0371799 0.13614 
191 1 -0.0592412 0.0702408 0.0141894 0.0929765 
1766 1 -0.0151411 0.0689198 -0.0456432 0.0840386 
2775 1 0.021664 -0.0800053 -0.0612145 0.103041 
1030 1 0.064794 -0.0508789 0.0324549 0.0885451 
1505 1 0.106273 0.128088 0.107543 0.198156 
3872 2 0.00296607 0.0365174 -0.00516445 0.0369999 
580 1 -0.0384186 -0.0434058 -0.0121316 0.0592218 
2054 1 -0.109309 -0.0646957 -0.0575007 0.139429 
2064 1 0.0840849 0.00676009 -0.0586304 0.10273 
529 1 -0.00561936 0.0482709 -0.0795057 0.0931816 
402 1 -0.0139733 0.0495082 0.010292 0.0524618 
124 1 0.00213166 -0.0837476 0.0369055 0.0915435 
744 1 0.0879671 0.0124773 0.0140336 0.0899491 
185 1 0.0819385 -0.0416369 0.0992315 0.135257 
315 1 -0.0311546 -0.0479891 -0.0474392 0.0743239 
655 1 -0.039043 -0.0193803 0.114663 0.122668 
765 1 -0.0192412 0.0776431 0.025073 0.0838291 
140 1 0.0325492 0.0714525 -0.0566626 0.0968275 
59 1 -0.0434831 -0.0174529 0.0394288 0.0612373 
54 1 0.00622999 0.0102273 0.0215107 0.0246195 
3506 2 -0.00529085 0.0776022 -0.061365 0.0990745 
666 1 -0.0491435 -0.108026 0.073929 0.139822 
43 1 0.0591942 0.107473 0.0690983 0.140815 
334 1 -0.00553025 0.00705323 0.00254476 0.00931706 
267 1 0.12239 0.0430933 -0.0169371 0.130856 
99 1 0.0586404 0.0672666 0.0856637 0.1237 
1189 1 -0.0815198 -0.0472653 -0.130097 0.160638 
201 1 -0.00302521 -0.0827292 -0.0543121 0.0990105 
380 1 0.0285809 0.109131 -0.143499 0.182534 
1777 1 0.0188269 -0.0162571 -0.043031 0.0497032 
2597 1 0.226675 -0.0263856 -0.0442532 0.232457 
2484 1 0.117388 -0.0541374 -0.0933254 0.159438 
308 1 -0.0411404 -0.0220097 -0.0299856 0.0554626 
3918 2 -0.037935 0.0670532 0.0306265 0.0829046 
89 1 -0.0699199 0.0516756 -0.0338752 0.0933097 
300 1 -0.00846566 0.0186972 -0.00192402 0.0206144 
3582 2 0.0183166 0.0466634 0.0155782 0.0524943 
712 1 -0.0801832 0.0456347 0.0651594 0.11295 
3836 2 -0.0126064 0.0366926 -0.0639768 0.0748217 
268 1 0.0162355 -0.00719791 -0.00821581 0.0195678 
788 1 -0.00305491 0.0609684 -0.100147 0.117285 
4091 2 -0.000206504 0.132232 0.00528054 0.132338 
371 1 0.0449309 0.0627156 0.0793963 0.110706 
3505 2 0.0204899 -0.0185294 0.0806357 0.0852367 
266 1 0.0555216 -0.059835 -0.043541 0.0925132 
3571 2 -0.0450154 0.0150966 0.0500281 0.0689717 
637 1 -0.00678635 -0.000791006 -0.0672552 0.0676013 
157 1 -0.00848736 0.00268296 0.0380892 0.0391155 
257 1 0.0303374 0.0326707 0.0193093 0.0485858 
571 1 -0.0423734 0.0228793 -0.0412719 0.0634219 
665 1 -0.120749 0.00826973 0.145673 0.189392 
448 1 -0.0838541 -0.051941 0.0250409 0.101767 
827 1 0.0982995 0.0971431 -0.00744689 0.138402 
3475 2 0.0145039 -0.00416413 0.0373887 0.0403189 
73 1 -0.0240333 0.0937901 -0.00322892 0.0968741 
373 1 0.0736338 -0.0323742 0.0738874 0.109222 
247 1 0.0135771 -0.0265165 -0.0411156 0.0507736 
107 1 0.0563223 0.0178919 0.00882626 0.0597513 
675 1 -0.0292656 0.064304 -0.102784 0.124724 
434 1 -0.0205544 0.0581365 0.0281862 0.0677996 
159 1 -0.056703 0.0278299 -0.0137328 0.0646399 
32 1 0.0508218 0.0760307 0.00927593 0.0919215 
3579 2 0.045764 -0.0708221 -0.0410046 0.0937629 
394 1 -0.0355925 0.0149937 0.0482851 0.0618311 
260 1 -0.0459757 0.0319006 0.0120516 0.057242 
3972 2 -0.0465492 0.0269525 0.0976491 0.111484 
1801 1 -0.0667941 0.0183435 0.0661472 0.0957778 
2122 1 -0.0262875 0.00556887 0.0971388 0.100787 
1966 1 0.00754022 -0.0392493 -0.069191 0.0799047 
291 1 -0.00652992 0.0139074 0.0225992 0.0273273 
2047 1 0.070789 0.0101792 0.0613848 0.0942486 
1899 1 -0.00469042 0.0980416 0.0114723 0.0988219 
622 1 -0.0601108 0.0368439 0.0078372 0.070938 
1993 1 -0.0238146 -0.000725453 -0.0185785 0.030213 
62 1 0.0339994 0.0705684 0.0396969 0.0878162 
2187 1 -0.0105125 -0.0154191 -0.100719 0.102433 
4318 2 0.0531374 -0.0331224 -0.00387706 0.0627352 
44 1 -0.0235672 -0.0421146 0.0653897 0.0812703 
824 1 0.00407283 -0.0100625 0.0395178 0.0409817 
1282 1 -0.0199933 0.0159803 0.0998156 0.103045 
3626 2 0.0682364 0.057106 -0.019123 0.0910109 
819 1 0.03452 0.0343199 0.0790761 0.0928576 
773 1 -0.102503 -0.0993449 0.0300196 0.145868 
270 1 0.0211662 -0.0678585 0.0187511 0.0735145 
14 1 -0.0735964 0.0142302 -0.0551237 0.093046 
3540 2 0.0493465 -0.0220401 -0.0144658 0.0559474 
997 1 0.0943355 -0.0384217 -0.0148502 0.102937 
4275 2 -0.0247813 -0.0683731 -0.0898688 0.115609 
164 1 0.0580081 0.0573053 0.143102 0.164703 
234 1 -0.0250982 -0.0619008 0.0635589 0.0922029 
1125 1 -0.00576423 0.0554204 -0.0680013 0.0879137 
3985 2 -0.0778775 -0.0072455 0.0890833 0.118546 
328 1 0.0306245 0.0179262 -0.0439101 0.0564563 
3474 2 0.00592518 0.0123356 -0.0294075 0.0324357 
543 1 -0.0763309 -0.0129925 -0.0133831 0.0785769 
293 1 0.0858409 -0.0483176 0.0410341 0.10671 
3458 2 0.0636008 -0.051898 0.0684144 0.10686 
390 1 -0.0171049 -0.0437842 -0.00979645 0.0480167 
3706 2 0.104684 -0.11919 -0.0591473 0.169303 
2169 1 0.0761077 0.079846 0.00277807 0.110343 
1786 1 -0.0212688 0.0200414 -0.0820963 0.0871425 
1478 1 0.00765236 -0.00560642 0.133426 0.133762 
87 1 0.00875705 -0.0245285 -0.0236748 0.035197 
4090 2 -0.000402115 -0.0527762 0.0425174 0.0677733 
142 1 -0.0172445 0.028907 0.0538943 0.063542 
1650 1 -0.076335 -0.0589811 -0.0782077 0.124186 
153 1 0.00487298 0.0397788 0.0110119 0.0415615 
374 1 0.0651787 -0.0115451 -0.029846 0.0726108 
602 1 0.00566603 -0.0601093 -0.0402214 0.0725465 
1277 1 -0.0555183 0.0184107 0.0147332 0.0603183 
76 1 -0.0219182 -0.046406 0.0772182 0.0927177 
1370 1 0.0562067 -0.0342745 0.0988617 0.118775 
221 1 -0.00623431 0.0525411 -0.0433211 0.0683824 
604 1 -0.00984877 0.0613881 0.0936902 0.112443 
1161 1 -0.0736823 -0.0261012 0.0125542 0.0791705 
1718 1 -0.126866 0.0182997 -0.10562 0.166089 
178 1 0.0280895 -0.160966 -0.00641945 0.163524 
295 1 -0.0933442 -0.0507769 0.0225981 0.108638 
1472 1 -0.0659304 -0.0484937 0.0292339 0.0869085 
4159 2 -0.0115394 -0.0415997 -0.0335898 0.0546988 
3467 2 0.105262 -0.01114 0.0250822 0.108781 
3531 2 0.0137034 -0.0468236 0.114684 0.12463 
2720 1 -0.0990435 0.0742411 -0.0524711 0.134442 
1851 1 -0.000747739 0.0191498 -0.00204614 0.0192733 
732 1 -0.0462054 -0.0939241 0.014681 0.105699 
4009 2 0.00842961 0.114032 -0.0181452 0.115774 
3878 2 0.0245805 0.0258751 -0.0270432 0.0447779 
3185 1 -0.141292 -0.0436507 0.029065 0.15071 
110 1 -0.049735 -0.0245321 0.0319772 0.0640151 
2963 1 -0.0324591 -0.00889253 -0.0311913 0.0458865 
2608 1 -0.0426601 0.0118984 -0.0200713 0.0486242 
3301 1 -0.000449227 0.000640881 0.0322884 0.0322978 
3759 2 -0.0263709 -0.00351268 -0.0178397 0.0320315 
4171 2 -0.029358 0.0226068 -0.00094973 0.0370656 
2118 1 -0.000671293 0.0614694 -0.0412691 0.0740411 
1742 1 0.0577163 -0.0744427 0.02353 0.0970903 
642 1 0.0327231 -0.141214 0.0722576 0.161967 
3366 1 -0.0459467 0.0128054 0.0906112 0.102399 
144 1 0.14303 0.135574 0.0199493 0.19808 
681 1 0.0554355 -0.048829 -0.0889662 0.115639 
1666 1 0.104333 -0.0507962 -0.0320357 0.120383 
183 1 -0.106799 -0.0690718 -0.0325014 0.131276 
694 1 -0.146102 0.0136365 0.0744763 0.164556 
444 1 -0.0275347 0.0620928 -0.104966 0.125026 
869 1 -0.0310268 -0.120384 0.102719 0.161265 
920 1 -0.00321225 -0.0917568 -0.0467074 0.103011 
53 1 0.0399276 0.00219899 0.0330183 0.0518581 
1450 1 -0.178026 -0.0551282 -0.0427824 0.191214 
1579 1 0.12026 -0.0878111 0.0689397 0.164091 
51 1 0.0975836 0.0342525 0.0189068 0.105134 
4187 2 -0.100191 -0.0634395 -0.182043 0.217261 
1694 1 -0.00787929 -0.103919 0.0980445 0.143087 
1590 1 0.0233361 0.0264684 -0.0560195 0.0662068 
2005 1 -0.0231544 -0.0042356 0.127344 0.129502 
736 1 -0.0547514 -0.00819181 -0.0564918 0.0790958 
363 1 0.0529461 -0.00143136 0.0374074 0.0648433 
230 1 0.0252308 0.0341584 0.167677 0.172971 
2538 1 0.0108053 0.00223467 -0.0708453 0.0716994 
357 1 -0.0839491 0.00488335 0.0125472 0.085022 
3849 2 0.122164 -0.0251698 -0.01699 0.125882 
4102 2 0.0552813 -0.110814 0.0448112 0.131696 
1032 1 0.0724746 -0.0155334 0.0191839 0.0765629 
78 1 -0.00696769 0.0375269 -0.0323443 0.0500296 
564 1 0.138287 -0.00103577 0.11597 0.180481 
797 1 0.146888 -0.0521849 -0.0560731 0.165661 
1476 1 0.153307 -0.030843 -0.0275692 0.158791 
872 1 -0.0926367 -0.0356879 -0.0724451 0.122896 
475 1 -0.0444934 0.0105471 0.0311532 0.0553301 
4119 2 0.135535 -0.0841 -0.0736563 0.175692 
576 1 -0.146416 0.0399387 0.0633909 0.164472 
507 1 0.0582641 -0.0428882 0.0228743 0.0758771 
248 1 0.0836923 -0.0525165 -0.0116192 0.0994856 
3597 2 -0.0610966 0.0438797 0.0518484 0.0913591 
539 1 0.00712651 0.0163118 0.0840889 0.0859523 
63 1 0.0681198 0.0211025 0.0471965 0.0855168 
57 1 -0.0873355 -0.000891611 0.00241647 0.0873735 
854 1 -0.00162127 0.0486448 0.0128132 0.0503301 
668 1 0.118618 -0.0905695 -0.123793 0.193902 
385 1 -0.106101 -0.183338 0.0158928 0.212421 
752 1 0.0373293 0.00766086 -0.00866878 0.0390809 
3650 2 0.00618656 0.102188 -0.000114259 0.102375 
3736 2 -0.0829616 -0.118175 -0.0350593 0.148584 
254 1 -0.0807504 -0.116227 -0.0209666 0.14307 
3637 2 -0.0140129 0.0102883 0.0952476 0.0968211 
731 1 0.0395269 0.0144168 -0.0614278 0.0744553 
2304 1 0.108376 -0.0666291 -0.0700672 0.145238 
610 1 -0.0985692 -0.0159119 -0.105166 0.145014 
292 1 -0.0820803 0.0164027 0.0137148 0.0848193 
313 1 -0.0931967 -0.00249078 0.0434824 0.102872 
2133 1 -0.00239667 -0.118078 0.0169953 0.119319 
646 1 -0.0871108 -0.0117811 -0.050547 0.101401 
271 1 -0.0160454 0.0674682 0.0757626 0.10271 