ITEM: TIMESTEP
84
ITEM: NUMBER OF ATOMS
4320
ITEM: BOX BOUNDS pp pp pp
0.0000000000000000e+00 1.9309999999999999e+01
0.0000000000000000e+00 1.9309999999999999e+01
0.0000000000000000e+00 9.6549999999999994e+00
ITEM: ATOMS id type c_displacement[1] c_displacement[2] c_displacement[3] c_displacement[4] 
4012 2 0.0232348 -0.0896373 -0.0671682 0.114395 
2361 1 -0.0560506 -0.0561758 -0.137442 0.158707 
79 1 0.0509468 -0.0551721 -0.0512202 0.0909013 
781 1 0.050339 0.0431351 0.148403 0.162536 
461 1 0.0287236 0.069283 0.0722068 0.10411 
3704 2 0.0316366 -0.0970964 0.0447668 0.111502 
629 1 -0.0162819 0.102276 0.0476186 0.113987 
1571 1 0.0337508 -0.0580974 -0.0523928 0.0852023 
58 1 0.0510893 0.171062 0.0212424 0.179788 
2372 1 -0.072168 -0.0334647 -0.0367418 0.0876246 
372 1 0.0196108 -0.0900254 -0.0213701 0.0945825 
3504 2 -0.0578571 -0.0699098 0.0497918 0.103509 
4130 2 0.0693044 -0.0133169 -0.104216 0.125863 
1262 1 0.0367405 0.015271 -0.0541191 0.067171 
907 1 -0.11351 -0.0425673 -0.147196 0.190691 
3659 2 0.0145845 0.0849418 -0.0614866 0.10587 
1298 1 0.0455895 0.0567071 -0.101465 0.124857 
1716 1 0.0540126 0.0391883 -0.0570061 0.0877654 
1182 1 0.0260676 0.0466894 -0.0519464 0.074551 
683 1 0.0252967 -0.0628537 0.0133967 0.069065 
1958 1 -0.0610914 -0.013696 -0.0155663 0.0645139 
1554 1 0.0395644 -0.0876602 -0.0718397 0.120044 
1037 1 -0.00143661 -0.0984015 0.00296272 0.0984566 
749 1 -0.0225696 -0.150099 -0.0225316 0.153449 
3628 2 0.0320709 0.0268219 0.0184217 0.0456872 
946 1 -0.121027 -0.0571315 0.0165701 0.134856 
2232 1 -0.0917858 -0.182233 -0.124686 0.239123 
7 1 0.0208589 -0.0705211 0.058695 0.0940926 
501 1 0.00606973 -0.0276136 0.000124005 0.0282731 
179 1 -0.0481819 -0.00412036 0.0645473 0.0806525 
714 1 -0.11865 0.0334702 0.03653 0.128579 
4166 2 -0.00157374 -0.0683894 0.129297 0.146278 
276 1 -0.024532 -0.083629 0.0672901 0.110107 
767 1 0.0238901 -0.00346641 0.0414945 0.0480057 
3890 2 -0.15283 -0.0475315 -0.0508881 0.167946 
6 1 0.0206351 0.177799 0.0425115 0.183971 
2086 1 0.0842881 0.0256014 0.0138908 0.0891788 
224 1 0.134725 -0.0787331 0.0110432 0.156434 
3660 2 0.0131314 -0.0379858 0.102739 0.110321 
596 1 -0.0678828 -0.0258278 -0.0321813 0.0794405 
1214 1 0.0918095 -0.0415832 -0.0740608 0.125073 
3686 2 -0.0421354 -0.00266196 0.0491174 0.0647688 
427 1 -0.156627 0.0334098 0.0578796 0.170288 
350 1 0.0416065 0.0565516 -0.0801923 0.106583 
85 1 -0.0570404 0.0535839 0.0969831 0.124622 
598 1 0.0477052 -0.147137 0.053645 0.163716 
3554 2 0.0987279 -0.010978 -0.036768 0.105923 
29 1 -0.229436 0.0855321 -0.0425489 0.248529 
464 1 0.0422994 -0.0305639 -0.119993 0.13085 
3619 2 -0.0818298 -0.000634481 0.146635 0.167923 
12 1 -0.0679051 0.0207188 -0.0812994 0.107935 
364 1 -0.150012 -0.0293647 -0.0590098 0.163853 
1849 1 -0.100168 -0.0670117 -0.112391 0.164791 
3663 2 -0.214607 0.062292 -0.053973 0.22989 
3517 2 0.00581499 0.0158128 0.151604 0.152537 
25 1 0.217735 0.048715 -0.0704068 0.233963 
4163 2 -0.0173369 -0.0458306 -0.0036082 0.0491328 
399 1 0.0463701 0.0597827 -0.0364043 0.0839609 
4265 2 -0.0458649 0.0561173 0.149431 0.16608 
527 1 -0.0230331 0.0930586 -0.0239918 0.0988233 
200 1 0.0400063 0.0508511 0.12164 0.137777 
1951 1 0.103685 0.0833192 0.00252995 0.133038 
644 1 0.0320726 -0.0369087 0.0243169 0.0546097 
193 1 0.00731193 0.0352076 0.054795 0.0655404 
550 1 0.0704106 -0.0242746 0.0164694 0.0762768 
69 1 0.0403932 -0.0610972 0.000276396 0.0732432 
842 1 0.0434539 0.0231557 -0.0267927 0.0560561 
578 1 0.0452662 -0.0707825 -0.0155557 0.0854469 
172 1 -0.0238039 -0.0192133 0.0659275 0.0726788 
381 1 -0.0302694 -0.0248311 0.0469777 0.0611533 
3524 2 0.0173861 0.0196079 0.076077 0.080464 
688 1 -0.0203543 0.138302 0.0372566 0.144672 
3651 2 -0.0317671 0.0251954 0.0913959 0.0999859 
2367 1 0.0496182 0.0476344 -0.0831509 0.107912 
1244 1 -0.132503 -0.00329325 -0.000509638 0.132545 
796 1 0.0245552 0.133473 -0.0531798 0.14576 
691 1 0.012347 0.0143049 -0.0885086 0.0905034 
421 1 0.0639905 0.065954 -0.00248788 0.0919288 
597 1 0.0452259 0.0195676 0.052255 0.0718252 
3617 2 0.132433 -0.0201428 -0.0358359 0.138667 
120 1 0.0506027 0.236465 0.117576 0.268887 
769 1 -0.0800732 -0.0680248 0.0256676 0.108157 
2142 1 0.0373529 0.0432392 -0.0163848 0.0594418 
3611 2 0.0869991 -0.00943427 0.179267 0.199485 
1915 1 0.00963203 0.117243 0.0802534 0.142405 
2140 1 0.0779939 -0.0459334 0.0541453 0.105473 
3828 2 0.0533296 0.0981268 0.0848408 0.140253 
3204 1 -0.0386491 0.0359572 0.081684 0.0972571 
175 1 0.103606 -0.0650067 -0.0586318 0.135639 
2011 1 0.213859 0.11836 0.0657603 0.253119 
75 1 -0.0738968 0.122241 -0.0525423 0.152198 
547 1 -0.00275941 -0.00655343 -0.152868 0.153033 
4316 2 -0.0929832 0.0888098 -0.0885346 0.156113 
559 1 0.0181082 0.0504069 -0.0545261 0.076432 
717 1 0.00940065 0.0785184 -0.111256 0.136497 
242 1 -0.011867 -0.033153 0.151708 0.155741 
3510 2 -0.141735 -0.00140311 0.195953 0.241843 
130 1 0.0984461 0.0140661 0.0565827 0.114416 
143 1 0.0270719 0.0834071 -0.0214813 0.0902833 
202 1 -0.134294 -0.121443 -0.0194803 0.182106 
182 1 -0.134812 0.0706687 0.0767447 0.170464 
84 1 0.025686 0.0212966 -0.0103146 0.0349243 
3633 2 -0.0863161 -0.0146338 -0.0509395 0.101289 
35 1 -0.164649 0.027381 0.143737 0.220271 
3612 2 -0.00379323 0.028494 0.0353539 0.0455653 
40 1 0.0819132 0.0990128 0.0707939 0.146714 
4005 2 0.0964304 -0.098123 0.0932485 0.166199 
718 1 -0.104955 0.00251501 -0.0369575 0.1113 
134 1 0.0371539 0.0401381 0.0799839 0.0968964 
511 1 -0.128111 -0.0383117 0.0148298 0.134537 
757 1 -0.0333274 0.189863 0.00583193 0.192854 
3555 2 -0.0486358 0.106063 0.0833124 0.143373 
3481 2 0.00679072 -0.048375 -0.0576619 0.0755722 
135 1 -0.05158 -0.0341507 -0.0672245 0.0913559 
369 1 0.087713 -0.0382585 -0.00945762 0.0961599 
2148 1 -0.0415368 -0.0756432 0.0693869 0.110733 
3462 2 0.0293221 -0.0812425 -0.156784 0.179001 
1914 1 -0.0258299 -0.0396878 -0.080455 0.0933558 
3661 2 0.087353 -0.130362 -0.0238682 0.158727 
1871 1 0.00783952 0.0429033 -0.0195827 0.0478083 
320 1 -0.102958 -0.104077 -0.0598046 0.158142 
582 1 -0.0887019 -0.0927925 -0.0117901 0.128909 
766 1 -0.00547477 0.0336026 -0.0650692 0.0734378 
3552 2 0.0774336 0.0238366 -0.0348637 0.0882022 
2290 1 0.0197223 0.0884387 0.0196414 0.0927155 
1794 1 -0.0755563 0.144604 0.0402017 0.168033 
753 1 -0.0171593 -0.0172062 0.0411204 0.0477639 
396 1 0.0575673 -0.0151871 0.171957 0.181972 
496 1 0.0247557 -0.071244 -0.0796955 0.109727 
480 1 -0.0348894 -0.0811408 0.113331 0.143684 
253 1 0.0879874 -0.00160898 -0.0791687 0.118372 
4033 2 0.0202795 -0.0229604 -0.0546281 0.0626312 
347 1 -0.0342943 -0.0349644 -0.112576 0.122768 
586 1 -0.0841784 0.0230579 -0.078927 0.117674 
3671 2 -0.0634225 0.014728 -0.0395663 0.0761894 
37 1 0.107912 -0.179175 -0.0751289 0.222246 
782 1 0.0481768 -0.120366 -0.0632027 0.144235 
481 1 0.112647 -0.0774077 -0.0496121 0.145405 
392 1 -0.024808 -0.0119681 -0.0749274 0.0798297 
333 1 0.0121562 -0.0409743 -0.0343514 0.0548333 
342 1 -0.00442128 -0.0625333 -0.0846451 0.105332 
1179 1 0.0402876 -0.0984528 -0.0855577 0.136514 
517 1 0.0556182 -0.0865227 -0.0314228 0.10755 
1824 1 0.0332168 -0.0272121 0.0120199 0.0445907 
34 1 0.164247 -0.0428475 0.0539705 0.178118 
398 1 -0.00454083 -0.0292438 -0.0593776 0.0663439 
170 1 -0.0472093 -0.0454897 -0.0215146 0.0689993 
235 1 0.0307557 -0.0521389 0.0568556 0.0830478 
3852 2 -0.0696056 -0.00844614 -0.0144146 0.0715825 
816 1 0.0456839 -0.0659697 -0.136973 0.158747 
3931 2 -0.186315 -0.0892557 0.0602597 0.2152 
274 1 -0.0120386 -0.0774314 -0.070473 0.10539 
30 1 -0.00385071 -0.0759719 -0.0214807 0.0790442 
2066 1 0.095347 -0.027783 0.155447 0.184463 
1082 1 -0.0387733 -0.141541 0.170032 0.224606 
1372 1 0.0128755 -0.0409873 0.0959878 0.105164 
1265 1 0.0256628 -0.0128659 -0.0188725 0.0343552 
601 1 -0.0406316 0.0582305 0.0187611 0.0734418 
540 1 -0.0941563 -0.14551 -0.020534 0.174529 
589 1 -0.0229836 0.084846 0.167133 0.18884 
958 1 0.115841 -0.014222 0.0944844 0.150162 
504 1 -0.064057 0.0838435 -0.0270572 0.108927 
1349 1 -0.175865 -0.0287281 -0.00229838 0.178211 
9 1 0.0248138 -0.121558 -0.0315533 0.128014 
149 1 -0.0338906 0.00784677 0.00887246 0.0359007 
163 1 -0.0202716 -0.262908 0.0923341 0.279387 
4247 2 0.0638865 -0.118831 -0.120138 0.180653 
1584 1 0.172938 0.01654 -0.0597904 0.183728 
3570 2 -0.0360557 -0.119868 -0.0856689 0.151682 
237 1 -0.0134102 0.0626759 0.114317 0.131059 
490 1 0.0627868 -0.137957 0.0525335 0.160419 
50 1 0.0527412 0.0261016 0.0413122 0.0719002 
152 1 0.105544 -0.0131537 -0.223339 0.247372 
3652 2 -0.0815116 -0.068925 -0.0265658 0.110002 
3823 2 0.0837745 0.0619393 -0.176663 0.205096 
902 1 -0.0277319 0.0426618 0.0398924 0.0646567 
3574 2 0.00938042 0.0251603 -0.00990614 0.028621 
770 1 -0.0130338 -0.0156026 -0.0886001 0.0909027 
154 1 -0.0625808 -0.0707888 -0.0146864 0.0956196 
116 1 0.0851338 -0.0405937 0.132876 0.162947 
710 1 -0.0753229 -0.155 -0.067053 0.184918 
1956 1 -0.0793993 -0.0326821 0.0280431 0.090326 
1810 1 -0.116188 0.0112781 0.0013127 0.116741 
2072 1 -0.0384631 -0.0207301 -0.0680961 0.0809087 
1649 1 -0.0561823 -0.0179912 -0.120191 0.133888 
186 1 -0.112331 0.0714267 0.0486537 0.141729 
1063 1 -0.223596 0.191408 -0.14776 0.329341 
432 1 -0.153209 0.0574617 -0.0888123 0.186178 
2495 1 -0.0177633 -0.133281 -0.00035131 0.13446 
3896 2 -0.0524484 -0.000379774 -0.109755 0.121643 
460 1 0.0854031 -0.0183842 -0.0494381 0.100378 
913 1 0.0370385 0.0290422 -0.0167983 0.0499749 
1068 1 -0.104325 0.0437669 -0.0899793 0.144553 
265 1 -0.0863202 -0.0512254 -0.0879654 0.133466 
1287 1 0.0166626 0.0391896 0.0226647 0.0482406 
3799 2 0.152462 -0.103129 -0.118877 0.219117 
554 1 0.155176 -0.0609947 0.0209156 0.16804 
1414 1 -0.00293801 0.0599868 -0.0520552 0.0794783 
213 1 0.00307282 0.0216997 0.0620235 0.0657817 
341 1 -0.111401 -0.0197945 0.0261443 0.116127 
3682 2 0.0246415 0.105163 -0.0485825 0.118435 
754 1 -0.0514405 0.00855576 0.0431773 0.0677023 
112 1 -0.0188884 0.0564573 -0.000722667 0.0595376 
1041 1 -0.00654116 0.00808505 -0.0398503 0.0411849 
119 1 0.0523072 0.0858146 -0.055286 0.114703 
3998 2 0.0574072 -0.0559085 0.176426 0.193772 
995 1 -0.0500066 0.0100049 -0.0164821 0.0535949 
4128 2 0.0662959 -0.0273233 0.246674 0.256885 
8 1 0.0152561 0.0681461 0.00553857 0.0700522 
94 1 0.0458631 0.07196 -0.0226923 0.0882984 
48 1 0.0902536 -0.0392631 0.119293 0.154655 
437 1 0.0798845 -0.0376496 -0.0227118 0.0911858 
3866 2 0.0604865 0.00838892 -0.0499814 0.0789121 
2206 1 0.0271005 0.0251044 -0.0257989 0.0450583 
3490 2 -0.0265571 0.0166935 -0.120599 0.124612 
3072 1 -0.0167675 -0.118967 0.0576889 0.133275 
3002 1 0.125563 0.0470678 -0.0263896 0.136667 
92 1 0.0318014 0.0866602 0.0533311 0.106609 
335 1 0.0411208 0.0374226 -0.0351632 0.0657862 
2192 1 0.0268715 0.0393186 0.175744 0.182082 
1186 1 0.00463932 -0.0346535 -0.0239237 0.0423643 
1114 1 0.0694833 -0.0811169 0.0248685 0.109665 
1821 1 -0.122962 -0.0747236 -0.0377211 0.148748 
1922 1 0.0365972 -0.0833044 0.0528131 0.105206 
451 1 -0.107557 -0.0341787 -0.0160655 0.113995 
3960 2 -0.0232332 -0.0372073 0.0686943 0.0815051 
100 1 -0.0699342 -0.0627353 -0.0280378 0.098044 
1180 1 0.0504851 -0.0440323 -0.0997008 0.120116 
165 1 0.0694466 0.00481171 -0.0512297 0.0864319 
388 1 -0.0510306 -0.00173284 -0.114396 0.125274 
3742 2 -0.0154756 -0.0566714 0.0216708 0.062616 
323 1 -0.0967853 0.08371 0.0577716 0.140401 
288 1 -0.123629 0.0271302 -0.0437233 0.13391 
3942 2 -0.106391 0.128428 0.108741 0.199091 
66 1 0.0420077 0.0463411 0.101128 0.118908 
340 1 0.109626 0.0781991 -0.0424317 0.141186 
138 1 -0.0255202 0.0108743 0.0718507 0.0770198 
879 1 -0.0676249 -0.00393366 -0.0475202 0.0827452 
3808 2 0.0756545 0.19019 -0.0548676 0.211911 
834 1 0.110121 0.03794 -0.000189494 0.116473 
18 1 -0.055425 -0.0680185 -0.109667 0.140447 
3679 2 0.131598 -0.0731654 -0.0997481 0.180613 
52 1 -0.000582764 -0.179108 0.0293921 0.181505 
407 1 0.011502 0.113543 -0.0847869 0.142173 
360 1 0.0605442 -0.000429442 -0.0488007 0.0777644 
2885 1 -0.0671104 -0.0083673 0.013291 0.0689237 
3526 2 -0.0709007 -0.237325 -0.0138928 0.248079 
310 1 -0.0995057 -0.0395905 -0.0641333 0.124827 
326 1 0.0819935 -0.0408013 0.0824093 0.123203 
227 1 -0.0596298 -0.078229 -0.0860464 0.130688 
2068 1 -0.0661323 0.0170407 -0.181456 0.193882 
456 1 0.111708 -0.0122583 0.0651758 0.129911 
279 1 0.0591598 0.0594915 0.165523 0.185572 
305 1 -0.00887125 0.01047 0.0371459 0.0395997 
49 1 0.0140784 0.0135637 -0.000298961 0.0195516 
3512 2 0.0493737 -0.184981 0.0158751 0.192114 
11 1 -0.0697359 -0.162241 -0.0217136 0.177923 
189 1 -0.149662 0.0805764 -0.0274601 0.172178 
2271 1 -0.0663461 -0.104501 -0.0850605 0.150192 
319 1 -0.16899 -0.0623514 0.0278948 0.182273 
3566 2 0.0717172 0.0126565 -0.0531694 0.0901695 
71 1 0.0192983 0.000262647 0.0412711 0.0455609 
1560 1 -0.0700743 0.0544208 0.0627503 0.108672 
190 1 -0.0809243 -0.00654254 0.136014 0.158402 
123 1 0.0688232 -0.0127744 0.09645 0.119174 
27 1 -0.0083591 -0.0432919 0.0360467 0.0569511 
162 1 0.00302338 0.0574312 -0.0379168 0.0688852 
255 1 -0.145248 -0.0334279 0.0137349 0.149676 
304 1 -0.0272324 0.00469665 -0.0991543 0.102933 
321 1 0.0221231 -0.0263011 0.134469 0.138792 
682 1 -0.100624 0.000859395 -0.00626159 0.100823 
3469 2 0.0132063 -0.0047021 -0.0855847 0.0867252 
3539 2 0.00207432 -0.0100977 0.100125 0.100654 
128 1 0.00608473 -0.0842364 -0.101468 0.132017 
3562 2 0.112266 0.00889032 0.122675 0.166528 
560 1 -0.198554 -0.0689703 -0.0885737 0.228092 
212 1 0.0337034 0.0341637 -0.0719102 0.0864532 
355 1 0.0092648 0.0399836 0.0681805 0.0795808 
156 1 0.0146991 0.0536501 0.056149 0.0790386 
3620 2 0.0983496 -0.0525992 0.0052098 0.111653 
1823 1 0.184783 -0.189732 -0.0831039 0.277577 
1805 1 -0.149205 0.00315286 0.117339 0.189844 
2599 1 -0.0821973 0.0624082 0.107152 0.148771 
327 1 0.136206 0.0703259 0.0648431 0.16644 
137 1 0.0738817 0.0399846 -0.0321514 0.0899499 
2334 1 0.0177062 -0.000871047 0.0155241 0.0235641 
3698 2 0.000596111 -0.0333241 -0.0518472 0.0616358 
555 1 -0.0251774 -0.0274801 -0.0174994 0.0411738 
4178 2 -0.00391608 -0.0222813 -0.00215273 0.022725 
290 1 0.0257342 -0.0261065 -0.0735654 0.0821928 
284 1 0.0166153 0.059131 0.0298766 0.0683019 
3543 2 -0.0680918 -0.109224 -0.0195884 0.130193 
366 1 0.0235589 0.00122712 0.129793 0.131919 
55 1 0.0393482 0.0453258 0.0168155 0.0623336 
273 1 -0.0223987 0.0306927 -0.116588 0.122623 
3468 2 0.0945109 -0.0137597 0.16465 0.190345 
316 1 0.151608 0.054309 0.152491 0.221784 
81 1 -0.0438232 -0.0449145 0.00483977 0.0629381 
322 1 0.0518515 -0.0304917 0.0560345 0.0822082 
239 1 0.0607018 -0.0133886 -0.0425403 0.0753236 
734 1 -0.0194449 -0.0786246 -0.0568085 0.09893 
384 1 -0.00942199 -0.0972658 -0.100288 0.140025 
3476 2 0.0312014 0.0917719 0.0127041 0.0977599 
311 1 -0.0252308 -0.115613 -0.0142098 0.119185 
3471 2 0.0374099 0.0301666 0.0691967 0.0842479 
1938 1 0.0698602 -0.0305518 0.0118694 0.077167 
139 1 0.150736 0.056266 -0.0680093 0.174678 
727 1 0.0938185 -0.151502 -0.0613682 0.18847 
1885 1 0.0186595 0.069161 0.0177056 0.0737896 
2184 1 0.219314 0.0556324 -0.0373553 0.229323 
2494 1 -0.152226 0.0359016 -0.093548 0.182244 
2091 1 0.0162652 0.0151344 -0.0515208 0.0561071 
281 1 0.0240229 0.104978 0.152844 0.186973 
863 1 -0.041415 0.083131 -0.0432685 0.10246 
176 1 -0.0645534 0.0345795 -0.107217 0.12984 
3710 2 0.0156722 0.0527387 -0.0664506 0.0862709 
3572 2 -0.0588864 -0.102665 -0.101947 0.156208 
4197 2 0.0132089 0.0463402 -0.132275 0.140778 
343 1 -0.0535875 -0.0224662 -0.0915171 0.108405 
282 1 -0.0184322 -0.00233434 -0.0810932 0.0831944 
1038 1 0.0295779 0.037955 0.0891607 0.101317 
408 1 0.162737 -0.0477542 0.0328625 0.172754 
412 1 0.100984 -0.0030441 0.0409004 0.108995 
820 1 0.102318 0.0621665 0.138275 0.182904 
585 1 -0.0542934 -0.0346715 -0.0987545 0.117908 
3609 2 0.0578514 -0.134986 0.0524424 0.155943 
719 1 0.000142249 -0.0209368 -0.0077225 0.0223161 
608 1 0.0832097 0.121882 0.117783 0.188817 
106 1 0.00368311 0.0465353 0.012306 0.0482757 
1047 1 -0.0921838 -0.0647832 -0.0457104 0.12159 
3573 2 0.0722118 0.0608164 -0.0657591 0.115054 
751 1 -0.00661618 -0.0516419 -0.0703435 0.087515 
259 1 0.0483481 0.00206959 -0.0339726 0.0591267 
245 1 -0.0321259 -0.000921251 0.0194418 0.037562 
613 1 -0.0327295 -0.123776 0.0692847 0.145575 
4296 2 -0.0200591 0.0531571 0.00329468 0.0569114 
272 1 -0.104338 -0.143705 -0.0503331 0.184583 
4239 2 -0.189132 -0.0776257 -0.0878778 0.222529 
88 1 0.0541503 0.105227 0.09239 0.150136 
4 1 0.0669897 -0.00784968 -0.0420027 0.0794573 
361 1 0.147171 0.0672536 -0.142105 0.215351 
358 1 -0.0509092 0.0581614 0.103111 0.128865 
194 1 0.0275928 0.0203462 -0.0951415 0.10113 
2373 1 0.0276775 -0.00689794 -0.0581087 0.0647321 
1982 1 0.0646253 0.0186117 0.0595149 0.0898045 
3953 2 0.0328711 0.075273 0.0861678 0.119044 
414 1 0.0242072 0.0495948 -0.165684 0.174633 
3186 1 0.0676838 -0.0195684 -0.0342939 0.0783587 
177 1 0.0789353 -0.0189156 -0.0104999 0.0818464 
1962 1 -0.0209898 0.13249 0.161611 0.210029 
706 1 0.00316019 0.0686778 0.00215613 0.0687843 
1544 1 0.0281694 -0.166725 0.047854 0.175729 
4160 2 -0.00768219 0.0840131 -0.00686261 0.0846422 
19 1 -0.0610816 0.102045 -0.0682134 0.137103 
3624 2 -0.0610348 0.00562144 -0.0761437 0.0977482 
115 1 0.0383292 0.012749 -0.143304 0.148888 
1102 1 -0.0555971 -0.026626 0.0876138 0.107127 
2048 1 0.13078 0.0253939 0.0289488 0.136332 
649 1 0.023906 0.0778301 -0.0100562 0.0820375 
113 1 -0.0198188 -0.0927567 0.0292797 0.0992668 
1150 1 0.00957524 -0.00908905 0.016053 0.0207845 
620 1 0.0360847 -0.104188 0.0265025 0.113401 
739 1 0.0349026 -0.021326 -0.14938 0.154878 
2412 1 -0.0371502 0.00560054 0.00788059 0.0383876 
3746 2 0.100506 0.0134522 -0.197682 0.222172 
1225 1 -0.0184487 -0.0131057 0.165996 0.167531 
241 1 0.127832 -0.0523957 -0.00466471 0.138232 
83 1 0.0335321 -0.0460945 -0.00110931 0.0570117 
1006 1 0.0647681 0.0170034 -0.021211 0.070242 
4046 2 -0.0851027 -0.0717701 -0.0330661 0.116133 
96 1 -0.0541478 -0.165897 0.0763002 0.190461 
411 1 0.147938 0.0518946 0.0375135 0.161202 
2454 1 -0.0290692 -0.0178947 0.0621251 0.0708856 
404 1 -0.00529684 0.0734216 0.0604856 0.0952749 
226 1 0.0442669 -0.0228904 0.0391146 0.063352 
534 1 0.0555355 -0.0511423 0.127415 0.148102 
3538 2 -0.0921819 0.0695713 -0.0498552 0.12579 
761 1 0.0406039 -0.0425067 0.0631156 0.0862501 
246 1 0.038425 0.00944134 -0.0303134 0.049845 
2229 1 -0.103056 -0.119155 -0.0567568 0.167451 
146 1 0.0250808 -0.153911 -0.0736799 0.172472 
3608 2 -0.0461909 -0.0139177 0.0395167 0.0623609 
503 1 0.0683643 -0.0318471 -0.0231565 0.0788932 
505 1 0.132191 -0.0865876 0.023561 0.159772 
1430 1 -0.026882 -0.0772185 -0.0883556 0.120383 
97 1 -0.156834 0.0673992 -0.08016 0.188587 
1723 1 0.0102003 -0.035117 -0.0901841 0.0973161 
3561 2 0.0280145 0.202672 -0.0608868 0.213466 
20 1 -0.0667087 -0.000154033 0.0209164 0.0699112 
263 1 -0.0534422 0.161173 -0.0126897 0.170276 
817 1 0.096528 -0.0908412 0.0261045 0.135097 
1034 1 -0.0386806 0.0542324 0.00674371 0.0669538 
353 1 -0.000666179 -0.101095 0.176768 0.203636 
1260 1 0.0379854 0.112747 -0.0712494 0.138677 
998 1 0.0373101 0.131162 -0.0826013 0.159432 
1932 1 0.117574 -0.100667 -0.0585852 0.165498 
36 1 0.0775881 -0.191867 -0.100952 0.23027 
38 1 0.0318925 0.0661838 -0.0444442 0.0858645 
3130 1 -0.00359759 -0.00726665 -0.0458867 0.0465976 
1973 1 0.106567 0.105376 0.127819 0.196973 
307 1 0.109021 -0.0268139 0.0496164 0.122745 
2714 1 0.0745396 0.0218318 -0.00880482 0.0781685 
28 1 0.059239 0.0749641 -0.0146355 0.0966596 
1937 1 0.0112643 0.0841872 -0.0709558 0.110676 
562 1 -0.0647781 -0.109619 -0.0380846 0.132902 
3011 1 0.00265524 0.0223019 -0.0154356 0.0272522 
410 1 0.0654444 -0.147134 0.0493711 0.168431 
693 1 0.104601 0.0649164 0.190965 0.227208 
367 1 0.00446637 0.0110799 -0.00496319 0.0129362 
318 1 0.0453399 0.0353403 -0.161931 0.171833 
735 1 0.160258 0.0186785 0.0314329 0.164376 
600 1 0.018161 -0.000982118 0.041961 0.0457331 
3590 2 0.0682018 0.119371 0.0782865 0.158208 
3636 2 0.0529452 -0.0636235 0.00442613 0.0828899 
26 1 -0.144764 0.0199834 0.0937952 0.173648 
1199 1 0.0415618 0.108371 -0.0592065 0.130296 
614 1 0.0126468 0.0613368 -0.103495 0.120968 
459 1 -0.103925 -0.0451168 -0.0506265 0.124093 
3645 2 0.0600036 0.12118 0.0563873 0.146508 
574 1 0.0783179 -0.0921862 0.137753 0.183324 
780 1 0.145963 0.0326392 0.0143849 0.150257 
161 1 -0.107508 -0.0517866 0.168102 0.20615 
309 1 0.10202 0.0759441 -0.0247509 0.129569 
365 1 0.0801007 -0.12721 -0.00181997 0.150339 
191 1 -0.0789399 0.0944663 -0.0206337 0.124824 
1766 1 -0.0733444 -0.0530231 -0.00127382 0.0905123 
2775 1 0.114759 -0.0691998 -0.0237977 0.136105 
1030 1 0.11057 -0.157341 0.0122314 0.192695 
1505 1 0.172803 0.174634 0.14005 0.282793 
3872 2 -0.0570694 0.0344123 -0.026594 0.0717521 
580 1 -0.0217521 -0.0335007 0.0215545 0.0453878 
2054 1 -0.0135277 -0.100447 -0.0145749 0.102396 
2064 1 0.0594794 0.0211132 0.0135065 0.0645445 
529 1 0.0122917 0.0241418 -0.061388 0.0670999 
402 1 -0.0355533 0.0782599 0.00270748 0.0859999 
124 1 -0.110952 -0.0656156 0.0327046 0.132986 
744 1 0.110419 -0.0286743 0.068782 0.133212 
185 1 0.0563398 -0.0444653 0.0901933 0.115266 
315 1 0.0434282 -0.0258647 -0.0143556 0.0525459 
655 1 0.00367933 -0.100979 0.182183 0.208329 
765 1 0.0293068 0.00688629 0.0395656 0.0497166 
140 1 -0.0220118 0.0445102 -0.174726 0.181645 
59 1 0.0409276 -0.0405118 0.0911497 0.107817 
54 1 0.0378474 0.0833639 0.0379883 0.0991215 
3506 2 -0.033269 0.121285 -0.127722 0.179248 
666 1 0.0420482 -0.226308 0.088117 0.246471 
43 1 0.08868 0.059839 0.119985 0.160752 
334 1 -0.104176 -0.0737904 0.0872319 0.154619 
267 1 0.121434 0.0680441 -0.166485 0.21701 
99 1 0.0884668 0.118781 0.0834496 0.169997 
1189 1 -0.128529 0.00326299 -0.186925 0.226873 
201 1 -0.0419851 -0.0180048 -0.0445347 0.0637986 
380 1 -0.00730167 0.0878186 -0.119872 0.148777 
1777 1 -0.0145689 -0.0159084 -0.0612559 0.0649431 
2597 1 0.196888 0.0129174 0.0706159 0.209567 
2484 1 0.161371 -0.0310903 0.0281967 0.166741 
308 1 0.0295477 -0.00788515 -0.0904203 0.0954519 
3918 2 -0.0128314 0.168674 0.099796 0.196405 
89 1 -0.109608 0.0238864 0.0146558 0.113134 
300 1 -0.0385551 -0.0201933 0.0267253 0.0510735 
3582 2 0.0762822 -0.0298572 -0.0681268 0.106544 
712 1 -0.0155213 0.115558 -0.0935972 0.149516 
3836 2 -0.0313985 0.0968266 -0.049751 0.113298 
268 1 -0.0341851 0.00340763 0.0736435 0.0812625 
788 1 -0.0126375 0.116192 -0.0478583 0.126296 
4091 2 -0.0354576 0.124808 -0.0155074 0.13067 
371 1 0.000359494 0.00430094 0.117578 0.117657 
3505 2 0.114075 -0.00322684 -0.00638867 0.114299 
266 1 0.133276 -0.0415573 -0.103192 0.173603 
3571 2 0.00187679 -0.0730089 0.0777489 0.106671 
637 1 -0.0388749 -0.0134799 -0.0817398 0.0915116 
157 1 -0.0725651 -0.045201 0.0634979 0.106493 
257 1 -0.0306617 0.00765483 0.0424217 0.0528993 
571 1 0.00577715 0.0379323 0.0473209 0.0609221 
665 1 -0.144652 -0.0538677 0.130708 0.202263 
448 1 -0.188691 -0.14132 0.00152843 0.23575 
827 1 0.0642724 0.0686454 0.0465468 0.104927 
3475 2 0.0922244 0.0158784 0.0480829 0.105211 
73 1 -0.0429038 0.0647455 -0.0201862 0.0802508 
373 1 0.10068 0.0110854 0.0742395 0.125582 
247 1 0.033585 0.00328313 -0.0794924 0.0863584 
107 1 0.06021 0.0721497 -0.0844611 0.126351 
675 1 -0.0807047 0.0312528 -0.118954 0.147106 
434 1 0.099367 0.0712157 -0.0581796 0.13539 
159 1 -0.0492046 0.0913853 -0.0609282 0.120352 
32 1 0.0556688 0.133363 -0.0258903 0.146816 
3579 2 0.0902683 -0.00813117 -0.154845 0.179419 
394 1 -0.0580861 0.00703214 0.0746209 0.0948247 
260 1 0.0199343 0.0366958 0.0488461 0.0642642 
3972 2 -0.0725587 0.0589894 0.0757538 0.120346 
1801 1 -0.0415828 0.0472031 0.0155074 0.0647899 
2122 1 0.0310576 0.0496603 0.193822 0.202479 
1966 1 0.0377904 -0.055205 -0.0824923 0.106211 
291 1 -0.0121096 0.000950425 0.066013 0.0671212 
2047 1 0.0888247 0.0472111 -0.00452623 0.100694 
1899 1 0.0514496 0.0643046 -0.0106406 0.0830383 
622 1 0.000806074 0.179623 -0.0232984 0.181129 
1993 1 0.00878225 -0.0112577 0.0311629 0.0342781 
62 1 0.00527872 0.0196317 0.0603014 0.0636359 
2187 1 -0.0722399 0.0627476 -0.101757 0.13968 
4318 2 0.0954331 0.0282181 0.04258 0.108244 
44 1 0.0271428 0.0562249 0.0945368 0.113292 
824 1 0.0359344 -0.0229932 0.0869656 0.0968658 
1282 1 0.0389162 0.0152801 0.0892903 0.0985937 
3626 2 0.162853 0.0999935 -0.0534954 0.198448 
819 1 0.0785171 0.121559 0.0497868 0.153037 
773 1 -0.120646 -0.16542 0.0635172 0.214368 
270 1 -0.0660738 -0.0532488 -0.0623347 0.105294 
14 1 -0.139997 -0.0597157 0.011957 0.15267 
3540 2 0.0594611 -0.0999533 0.0325104 0.120761 
997 1 0.0530172 0.0134086 -0.105137 0.118509 
4275 2 -0.0388645 -0.0859281 -0.197454 0.21882 
164 1 0.00870998 0.0252959 0.115119 0.118187 
234 1 0.025347 -0.00666977 0.0533744 0.0594625 
1125 1 -0.0126324 -0.0591446 -0.0730759 0.0948564 
3985 2 0.0236059 0.0281271 0.0446268 0.0577921 
328 1 0.0110447 -0.00198908 -0.0293792 0.0314496 
3474 2 0.0573938 0.00581254 -0.0752286 0.0948007 
543 1 -0.0408504 -0.0146056 0.0167553 0.0465061 
293 1 0.0909178 -0.0826409 0.128914 0.178085 
3458 2 0.127637 -0.0170573 0.109827 0.169246 
390 1 -0.0154063 0.00312444 -0.1368 0.1377 
3706 2 0.074384 -0.233678 -0.1828 0.305866 
2169 1 0.0900113 0.0692436 -0.0957048 0.148513 
1786 1 0.0756571 -0.0130185 0.00398567 0.0768724 
1478 1 -0.0407441 0.0578776 0.0819584 0.108292 
87 1 0.0231647 0.00618157 -0.0409379 0.0474418 
4090 2 -0.0936677 -0.0345162 0.0321034 0.10486 
142 1 0.0208385 0.022293 0.00511458 0.0309416 
1650 1 -0.0822674 -0.109639 -0.0315794 0.140663 
153 1 0.0918784 -0.0485177 0.0154062 0.105038 
374 1 0.0147807 -0.0823512 -0.100933 0.131101 
602 1 0.0251984 -0.0374747 -0.138605 0.145776 
1277 1 -0.0521481 0.018728 0.0257611 0.0611048 
76 1 0.0351664 0.0151608 0.186802 0.190687 
1370 1 0.0483168 -0.0321787 0.065152 0.0872626 
221 1 -0.0352868 0.0526208 -0.0210601 0.0667655 
604 1 -0.11235 0.0213658 0.0653582 0.131722 
1161 1 -0.00995999 -0.073706 0.0760741 0.106391 
1718 1 -0.0426378 0.0366589 -0.103523 0.117809 
178 1 -0.0943976 -0.287807 -0.0274545 0.304134 
295 1 -0.178885 -0.0975482 -0.0129704 0.204166 
1472 1 -0.0981123 -0.00641386 -0.0467523 0.108871 
4159 2 0.000628516 -0.0400279 -0.0176968 0.0437699 
3467 2 0.0737057 0.0136574 -0.0801994 0.109777 
3531 2 -0.100938 -0.089081 0.142973 0.19638 
2720 1 -0.0079986 0.0572151 -0.0778968 0.0969817 
1851 1 -0.020498 0.00113208 -0.00420649 0.0209558 
732 1 0.0384156 -0.0707812 0.0250335 0.0843352 
446 1 -0.30935 0.100023 0.0966181 0.339171 
3878 2 0.0710235 0.105041 -0.041225 0.133332 
3185 1 -0.16356 0.00468884 -0.00883216 0.163865 
110 1 -0.113792 0.0139164 0.00495393 0.114747 
2963 1 -0.0283788 0.0589012 -0.0211857 0.068728 
2608 1 -0.00393705 -0.012914 0.0245838 0.028047 
3301 1 0.0351446 0.0273168 0.143385 0.150135 
3759 2 -0.0436289 -0.0523132 -0.0384413 0.0782169 
4171 2 -0.115821 0.0290705 0.0841526 0.146087 
2118 1 -0.0197837 0.0165251 -0.0718475 0.0763317 
1742 1 0.00250993 0.00923549 0.0437467 0.0447813 
642 1 0.0514456 -0.231233 -0.00844047 0.237037 
3366 1 -0.0603549 0.0154 0.0679117 0.0921514 
144 1 0.101082 0.105463 -0.0203726 0.147496 
681 1 0.0170981 0.000986948 -0.0826331 0.0843893 
1666 1 0.0207437 -0.0549066 -0.0525646 0.0787913 
183 1 -0.0779821 -0.118291 -0.0441884 0.148413 
694 1 -0.119022 0.0215447 0.0661979 0.137886 
444 1 -0.0633421 0.032297 -0.132905 0.150728 
869 1 -0.0415829 -0.141911 0.13865 0.202711 
920 1 -0.0762441 -0.152674 0.065539 0.182806 
53 1 0.0985442 -0.00331281 0.0486761 0.10996 
1450 1 -0.295727 -0.0101437 -0.0959525 0.311069 
1579 1 0.0107116 -0.0757461 0.0450387 0.0887733 
51 1 0.100347 -0.0468156 -0.0498134 0.121419 
4187 2 -0.0754358 -0.0839197 -0.142004 0.181378 
1694 1 0.0164305 -0.101929 0.248577 0.269166 
1590 1 0.048433 0.0120781 -0.0603282 0.0783015 
2005 1 0.0881451 -0.134065 0.122497 0.201863 
736 1 -0.140616 0.0300871 -0.0284059 0.146577 
363 1 0.144721 0.0104862 -0.00256852 0.145123 
230 1 -0.0220639 -0.00362617 0.124804 0.126791 
2538 1 0.0976169 -0.106113 -0.0319631 0.147684 
357 1 -0.0523406 0.00840773 -0.0635261 0.0827393 
3849 2 0.189157 -0.0637413 -0.158095 0.254632 
4102 2 0.0143267 -0.133421 0.0648979 0.149058 
1032 1 0.0779601 0.0585121 0.0750102 0.122996 
78 1 0.00831301 0.0535199 -0.0155887 0.0563604 
564 1 0.300679 -0.0821578 0.0930042 0.325281 
797 1 0.149307 -0.0636234 0.000767146 0.162299 
1476 1 0.256246 0.0620444 -0.00742127 0.263755 
872 1 -0.070705 0.0241136 -0.0358009 0.0828394 
475 1 0.039321 -0.0167603 -0.00848525 0.0435781 
4119 2 0.287297 -0.136779 -0.100752 0.333764 
576 1 -0.11209 0.0705139 0.0832532 0.156421 
507 1 0.0476014 -0.157831 0.0354332 0.168618 
248 1 0.0433704 -0.0509935 -0.0335635 0.0748855 
3597 2 -0.067978 0.0499841 0.0748717 0.112806 
539 1 -0.00714011 -0.0404013 0.033174 0.0527613 
63 1 0.0670033 -0.0235 0.129023 0.147271 
57 1 -0.0305826 -0.0968655 0.0242376 0.10443 
854 1 -0.0757341 -0.00248038 0.0210201 0.0786362 
668 1 0.0858018 -0.137374 -0.0762102 0.179002 
385 1 -0.0885299 -0.274443 0.127761 0.315404 
752 1 -0.00160315 0.0595612 -0.0312068 0.0672605 
3650 2 0.00534691 0.161716 -0.0994721 0.189935 
3736 2 -0.0893777 -0.194378 0.0641274 0.223346 
254 1 -0.164508 -0.138339 0.0080987 0.215096 
3637 2 -0.0200607 -0.0529959 0.0147492 0.0585537 
731 1 -0.0379342 -0.0908478 0.0223767 0.100961 
2304 1 0.0846472 -0.164266 0.0180201 0.18567 
610 1 -0.21718 0.0293319 -0.104021 0.242586 
292 1 -0.142771 0.0260839 -0.0208264 0.146621 
313 1 -0.092977 0.00214079 0.012374 0.0938213 
2133 1 -0.0203087 -0.086278 -0.0484282 0.101003 
646 1 -0.102451 -0.0319678 -0.0970984 0.144728 
271 1 0.034796 0.12397 0.0440995 0.136103 
584 1 -0.0461074 0.126119 -0.057117 0.145926 
3649 2 -0.0834561 -0.0151256 0.0568264 0.102093 
1148 1 -0.0386473 0.132724 0.13559 0.193633 
779 1 -0.125432 -0.0811012 0.0557353 0.159427 
621 1 -0.13547 0.0666723 0.0157565 0.151808 
16 1 -0.0357873 -0.0361759 0.109584 0.120823 
3635 2 -0.0812244 -0.243885 0.06549 0.265266 
790 1 0.0982469 0.0271727 0.126427 0.162402 
17 1 -0.0346425 -0.0535938 0.136259 0.150463 