ITEM: TIMESTEP
94
ITEM: NUMBER OF ATOMS
4320
ITEM: BOX BOUNDS pp pp pp
0.0000000000000000e+00 1.9309999999999999e+01
0.0000000000000000e+00 1.9309999999999999e+01
0.0000000000000000e+00 9.6549999999999994e+00
ITEM: ATOMS id type c_displacement[1] c_displacement[2] c_displacement[3] c_displacement[4] 
4012 2 0.0104562 -0.125549 -0.0709798 0.144603 
2361 1 -0.0643832 -0.0317385 -0.147724 0.164241 
79 1 0.0593379 -0.0407285 -0.0723713 0.102066 
781 1 0.0458547 0.0676119 0.127479 0.15141 
461 1 0.0419713 0.0536002 0.0918981 0.114367 
3704 2 0.0537678 -0.0915106 0.066294 0.12514 
629 1 -0.00698406 0.092264 0.0578629 0.109131 
1571 1 0.0384311 -0.0688099 -0.0642471 0.101683 
58 1 0.0474941 0.184436 -0.00034971 0.190454 
2372 1 -0.076545 -0.0319942 -0.0507511 0.0972545 
372 1 -0.00424889 -0.0760698 -0.0391469 0.0856571 
3504 2 -0.0593399 -0.0478557 0.0481151 0.0901468 
4130 2 0.0578132 -0.00983596 -0.0903587 0.107721 
1262 1 0.0299176 -0.0112529 -0.057458 0.0657504 
907 1 -0.104727 -0.0313741 -0.157813 0.191982 
3659 2 0.039904 0.0669552 -0.0382222 0.0868117 
1298 1 0.0686585 0.0441146 -0.0885866 0.120448 
1716 1 0.040245 0.0409334 -0.0386901 0.0692252 
1182 1 0.0119332 0.0550513 -0.0466086 0.0731123 
683 1 0.0448686 -0.0622184 0.0106539 0.0774456 
1958 1 -0.0790591 0.00973683 -0.0338061 0.0865332 
1554 1 0.0284476 -0.0790183 -0.0643537 0.105804 
1037 1 -0.0168183 -0.0898643 -0.00440795 0.0915307 
749 1 0.0210799 -0.170337 -0.0558117 0.180483 
3628 2 0.0286386 -0.00408889 0.0481176 0.0561444 
946 1 -0.132711 -0.0661429 0.0356534 0.152506 
2232 1 -0.108383 -0.189414 -0.150463 0.265072 
7 1 0.0305494 -0.0701293 0.0706045 0.104098 
501 1 0.0152919 -0.0442122 0.0331911 0.0573604 
179 1 -0.0493713 0.00640673 0.0841696 0.0977911 
714 1 -0.111634 0.0525543 0.00543284 0.123505 
4166 2 0.00705975 -0.0383647 0.121065 0.127195 
276 1 -0.00637875 -0.0840433 0.0487661 0.0973761 
767 1 0.048946 0.0144905 0.0617802 0.0801404 
3890 2 -0.122578 -0.0543504 -0.0442895 0.141212 
6 1 0.0157037 0.170133 0.0790726 0.188267 
2086 1 0.106142 0.0249378 0.00461507 0.10913 
224 1 0.117957 -0.0909144 0.0210856 0.150412 
3660 2 0.0334075 -0.0399398 0.113106 0.124515 
596 1 -0.0567249 -0.0419679 -0.0442756 0.0833027 
1214 1 0.101881 -0.0323557 -0.0528139 0.11923 
3686 2 -0.0579282 -0.00455362 0.044906 0.0734368 
427 1 -0.157399 0.00256361 0.0511196 0.165512 
350 1 0.053193 0.0420566 -0.0738769 0.10028 
85 1 -0.0676673 0.0422441 0.0902045 0.120417 
598 1 0.0481907 -0.172447 0.0324039 0.181962 
3554 2 0.108953 0.00542543 -0.0267596 0.112322 
29 1 -0.240672 0.103021 -0.0274792 0.263233 
464 1 0.0220067 -0.0354217 -0.0838872 0.0936806 
3619 2 -0.0766291 -0.0310418 0.160477 0.180523 
12 1 -0.0793423 0.0310972 -0.0727781 0.112066 
364 1 -0.149141 -0.0255928 -0.0370132 0.155782 
1849 1 -0.0923333 -0.0538283 -0.123903 0.16363 
3663 2 -0.22667 0.0618019 -0.0908908 0.251912 
3517 2 0.0027126 0.023019 0.161428 0.163084 
25 1 0.204464 0.0565238 -0.0635128 0.221437 
4163 2 -0.0367399 -0.0493241 0.0126495 0.0627909 
399 1 0.0231013 0.0727769 -0.0417418 0.0870203 
4265 2 -0.0453315 0.0374598 0.180819 0.190141 
527 1 -0.0255318 0.0726681 -0.00350736 0.0771027 
200 1 0.0432211 0.0599817 0.105375 0.128723 
1951 1 0.0751697 0.0779064 0.00228403 0.108283 
644 1 0.0370307 -0.0411256 -2.75158e-05 0.0553406 
193 1 -0.0201716 0.0129169 0.0385176 0.045358 
550 1 0.0882939 -0.0422103 0.0384717 0.105155 
69 1 0.0676909 -0.0571453 0.00795133 0.0889431 
842 1 0.0676908 0.002637 -0.0251232 0.0722507 
578 1 0.0588084 -0.0817724 -0.0311889 0.105441 
172 1 -0.00159903 -0.0211133 0.0889172 0.0914035 
381 1 -0.0251132 -0.024338 0.057644 0.0674228 
3524 2 0.00284818 0.0642449 0.0766261 0.100035 
688 1 -0.0239962 0.15876 0.0538238 0.169345 
3651 2 -0.00490694 0.0142709 0.0962949 0.0974702 
2367 1 0.0666326 0.0834906 -0.0939251 0.142241 
1244 1 -0.137877 0.0137955 -0.000188189 0.138566 
796 1 0.0345095 0.138622 -0.0542285 0.152799 
691 1 -0.00937357 0.0308675 -0.142157 0.145771 
421 1 0.0355243 0.0705861 -0.0150147 0.0804352 
597 1 0.0594329 0.0057603 0.0647158 0.0880545 
3617 2 0.1509 0.0179327 -0.0578076 0.162585 
120 1 0.0352937 0.231887 0.104295 0.2567 
769 1 -0.069584 -0.083401 0.0257733 0.111633 
2142 1 0.0404982 0.0490761 -0.0171757 0.0659058 
3611 2 0.0577245 -0.0149293 0.17373 0.183677 
1915 1 0.0181631 0.123729 0.0811644 0.149086 
2140 1 0.0958407 -0.051999 0.0349629 0.114506 
3828 2 0.0250596 0.113697 0.102991 0.155442 
3204 1 -0.0456028 0.0428644 0.089372 0.109107 
175 1 0.107412 -0.0767762 -0.0545449 0.142853 
2011 1 0.225329 0.105688 0.0873472 0.263766 
75 1 -0.0919536 0.105939 -0.0566273 0.151279 
547 1 -0.0179467 0.000105242 -0.15848 0.159493 
4316 2 -0.104509 0.0937036 -0.0616461 0.153306 
559 1 0.0254327 0.0895165 -0.05346 0.107322 
717 1 0.00727 0.0924535 -0.134987 0.163774 
242 1 -0.00191884 -0.022448 0.178912 0.180325 
3510 2 -0.151557 -0.00150921 0.216811 0.264535 
130 1 0.0843645 0.0102884 0.0266139 0.0890591 
143 1 0.00295049 0.0792352 -0.00453416 0.0794197 
202 1 -0.129765 -0.122023 0.0097602 0.178393 
182 1 -0.114582 0.0596292 0.0938196 0.159646 
84 1 0.0202876 0.0221036 -0.0311268 0.0432323 
3633 2 -0.0986392 -0.0279675 -0.0707544 0.124572 
35 1 -0.152928 0.017529 0.150474 0.21526 
3612 2 0.00855022 0.0185275 0.0295881 0.0359421 
40 1 0.049937 0.0813508 0.0454813 0.105737 
4005 2 0.11038 -0.11233 0.110783 0.192548 
718 1 -0.100195 0.0115784 -0.0365803 0.107291 
134 1 0.0504261 0.0347138 0.0736712 0.0957877 
511 1 -0.17104 -0.0348289 0.0318009 0.177423 
757 1 -0.0327884 0.179551 0.014091 0.183064 
3555 2 -0.0252384 0.100208 0.0912051 0.13783 
3481 2 0.0171153 -0.0512907 -0.076107 0.0933592 
135 1 -0.0741824 -0.016687 -0.0288703 0.0813325 
369 1 0.0594822 -0.0272621 -0.012236 0.0665663 
2148 1 -0.00220078 -0.0835825 0.0345379 0.090464 
3462 2 -0.00119743 -0.0990154 -0.151801 0.181243 
1914 1 -0.0505305 -0.077832 -0.107452 0.141976 
3661 2 0.0662151 -0.121344 -0.0356823 0.142766 
1871 1 -0.000487702 0.0465092 -0.00721978 0.0470687 
320 1 -0.107826 -0.11854 -0.0589051 0.170728 
582 1 -0.0791398 -0.119436 0.0283279 0.14605 
766 1 0.0132185 0.0398778 -0.0858761 0.0956017 
3552 2 0.0809495 0.0315276 -0.0496002 0.100035 
2290 1 0.0432119 0.101039 0.00716165 0.110125 
1794 1 -0.0813196 0.161031 0.0198016 0.181483 
753 1 -0.023537 -0.0464999 0.0200695 0.0558481 
396 1 0.0775597 -0.0104393 0.155929 0.174466 
496 1 0.0181377 -0.072102 -0.0721497 0.103601 
480 1 -0.0268947 -0.085528 0.118591 0.148668 
253 1 0.113816 0.00821109 -0.0775323 0.137959 
4033 2 0.0419281 -0.0480383 -0.05304 0.082939 
347 1 -0.0663688 -0.0619865 -0.0912589 0.128745 
586 1 -0.0648473 0.0202828 -0.0611578 0.0914157 
3671 2 -0.0738346 0.00298438 -0.0526704 0.0907449 
37 1 0.114382 -0.174065 -0.0964213 0.229519 
782 1 0.0654154 -0.09201 -0.0398554 0.119722 
481 1 0.112909 -0.0556583 -0.03611 0.130959 
392 1 -0.0360952 -0.0440019 -0.0689735 0.0894225 
333 1 0.00295427 -0.0672754 -0.045111 0.0810537 
342 1 0.0137863 -0.0587853 -0.0955065 0.112992 
1179 1 0.0542445 -0.0897729 -0.0988471 0.144126 
517 1 0.0565372 -0.0785295 -0.0335138 0.102404 
1824 1 0.0452217 -0.00878482 -0.0321267 0.0561631 
34 1 0.182544 -0.051679 0.0659597 0.200857 
398 1 0.00113599 0.00137831 -0.0446675 0.0447032 
170 1 -0.0237209 -0.0375328 -0.0117997 0.0459416 
235 1 0.0080983 -0.043153 0.0205237 0.0484663 
3852 2 -0.0683722 -0.0255182 -0.01321 0.0741649 
816 1 0.0439756 -0.0643683 -0.139712 0.15999 
3931 2 -0.195358 -0.0763479 0.0526697 0.216258 
274 1 -0.00786365 -0.0676686 -0.0835527 0.107805 
30 1 0.00035219 -0.0785947 -0.0154836 0.0801062 
2066 1 0.0849509 -0.0230466 0.158795 0.181559 
1082 1 -0.0310541 -0.113566 0.187602 0.221486 
1372 1 0.0119204 -0.0228222 0.0851189 0.088928 
1265 1 0.0261512 -0.00984143 0.00232524 0.0280383 
601 1 -0.0266115 0.0368834 0.0173877 0.0486918 
540 1 -0.112946 -0.150078 -0.00862609 0.188028 
589 1 -0.0134037 0.0465281 0.179179 0.185606 
958 1 0.0944953 -0.0150991 0.106777 0.143383 
504 1 -0.0540371 0.0801452 -0.0149163 0.0978047 
1349 1 -0.185645 -0.036587 0.0201533 0.190286 
9 1 0.00289134 -0.11713 -0.0383422 0.12328 
149 1 -0.0488522 0.002395 0.012795 0.0505567 
163 1 -0.0220729 -0.275106 0.100439 0.293697 
4247 2 0.0686487 -0.126944 -0.148192 0.206854 
1175 1 0.0266298 -0.113011 0.0257528 0.118928 
3570 2 -0.0225355 -0.129274 -0.085091 0.156397 
237 1 -0.0273038 0.0513151 0.0965676 0.112712 
490 1 0.0700611 -0.142399 0.0916141 0.183246 
50 1 0.0841779 0.0154468 0.0659265 0.108032 
152 1 0.0954437 -0.0196645 -0.252363 0.270524 
3652 2 -0.0782495 -0.0760056 -0.0365252 0.115039 
3823 2 0.0689438 0.0373762 -0.174459 0.191275 
902 1 -0.0490134 0.0287876 0.0674162 0.0881816 
3574 2 0.0283318 0.00441129 0.0131307 0.0315367 
770 1 -0.0101454 0.00699499 -0.0969358 0.0977159 
154 1 -0.0455309 -0.0723392 -0.0210392 0.0880266 
116 1 0.0899981 -0.0405958 0.152616 0.181768 
710 1 -0.0565808 -0.141246 -0.0421533 0.157889 
1956 1 -0.07217 -0.0395906 0.0351687 0.089514 
1810 1 -0.114667 0.0130875 -0.0160866 0.116527 
2072 1 -0.0333823 -0.00897464 -0.0802956 0.0874203 
1649 1 -0.0617095 -0.0280229 -0.111574 0.130545 
186 1 -0.137474 0.0496105 0.0423948 0.152177 
1063 1 -0.251971 0.203954 -0.158455 0.360825 
432 1 -0.11681 0.0727154 -0.0432544 0.144232 
2495 1 -0.0639554 -0.158057 -0.0130411 0.171004 
3896 2 -0.0567684 0.0187352 -0.0981616 0.114932 
1071 1 -0.0471001 -0.0113671 0.0571244 0.0749054 
913 1 0.0380099 0.0411939 -0.00312979 0.0561381 
1068 1 -0.116719 0.0692827 -0.113133 0.176699 
265 1 -0.082451 -0.0445858 -0.101573 0.138214 
1287 1 0.0206991 0.0207232 0.0349956 0.0456355 
3799 2 0.152018 -0.112641 -0.115608 0.221727 
554 1 0.17066 -0.060797 0.0186977 0.182128 
1414 1 -0.0200274 0.0481974 -0.0508644 0.0728785 
213 1 -0.005882 0.0272792 0.0558317 0.0624174 
341 1 -0.0865691 -0.00788929 0.042865 0.0969219 
3682 2 0.0340125 0.0990091 -0.0378831 0.111332 
754 1 -0.0214548 0.0246727 0.0332051 0.0466007 
112 1 -0.0223389 0.074393 -0.00386274 0.0777706 
1041 1 -0.00231534 0.00901543 -0.0532822 0.0540892 
119 1 0.0591556 0.0842198 -0.0656751 0.122088 
3998 2 0.0856322 -0.0581311 0.164812 0.194616 
995 1 -0.0411248 -0.017923 -0.0384371 0.0590753 
4128 2 0.0429352 -0.0529823 0.237752 0.247339 
8 1 0.0221596 0.0508193 -0.00539462 0.0557024 
94 1 0.0387197 0.0860377 -0.034734 0.100539 
48 1 0.0874511 -0.0280525 0.128926 0.158292 
437 1 0.0753349 -0.0322727 -0.00767278 0.0823149 
3866 2 0.0486316 0.0191354 -0.0327443 0.0616716 
2206 1 0.0371253 0.029732 -0.0560021 0.0734746 
3490 2 -0.00349186 0.0164203 -0.136037 0.137069 
3072 1 0.00925567 -0.122929 0.0441281 0.130937 
3002 1 0.166264 0.0495313 -0.0310353 0.176239 
92 1 0.0309814 0.0629341 0.0470649 0.0844728 
335 1 0.0597714 0.0293096 -0.0425349 0.0789993 
3815 2 -0.00431218 0.0704959 -0.0142884 0.0720585 
1186 1 -0.0339491 -0.0304305 -0.0126137 0.0473039 
1114 1 0.0854519 -0.0850872 0.03253 0.1249 
1821 1 -0.122155 -0.0658587 -0.0284686 0.141667 
1922 1 0.00513661 -0.0803934 0.0503675 0.0950072 
451 1 -0.104519 -0.0456316 -0.00776464 0.11431 
3960 2 -0.0335648 -0.0424516 0.0795942 0.0962495 
100 1 -0.079293 -0.083376 -0.00769733 0.115318 
1180 1 0.0577478 -0.029098 -0.0992171 0.118429 
165 1 0.0610476 0.00734524 -0.0492506 0.0787806 
388 1 -0.0427755 -0.00438819 -0.118517 0.126077 
3742 2 -0.0431671 -0.0635046 0.030295 0.0825471 
323 1 -0.0880389 0.0607972 0.0694161 0.127537 
288 1 -0.124876 0.0332496 -0.0488408 0.138149 
3942 2 -0.095488 0.126858 0.106752 0.191329 
66 1 0.0325032 0.0702872 0.119402 0.142315 
340 1 0.12784 0.0825019 -0.0401618 0.157362 
138 1 -0.0272201 0.0213349 0.0857344 0.0924473 
879 1 -0.0915927 0.0308249 -0.0451569 0.10667 
3808 2 0.0759538 0.189663 -0.0678158 0.215268 
834 1 0.135115 0.0404027 0.00609545 0.141158 
18 1 -0.0310553 -0.070199 -0.138272 0.15815 
3679 2 0.154346 -0.0877049 -0.114855 0.211439 
52 1 0.00805485 -0.199172 0.0359144 0.202544 
407 1 -0.00535714 0.127848 -0.0940171 0.158786 
360 1 0.0523541 0.0151547 -0.042143 0.0688959 
2885 1 -0.0830052 -0.0141105 0.0192442 0.0863673 
3526 2 -0.0833364 -0.246276 -0.0113672 0.260243 
310 1 -0.0997275 -0.0358141 -0.0733229 0.128858 
326 1 0.0596659 -0.0459543 0.0727274 0.104695 
227 1 -0.0552677 -0.0878927 -0.0926012 0.139121 
2068 1 -0.0223412 0.0216164 -0.181427 0.184071 
456 1 0.124437 -0.0130409 0.0707759 0.143749 
279 1 0.0975167 0.059489 0.174989 0.208973 
305 1 -0.0199809 -0.00489862 0.0787054 0.0813497 
49 1 0.0213457 -0.0207182 -0.0148372 0.0332419 
3512 2 0.0636587 -0.212958 0.000813 0.222271 
11 1 -0.0619746 -0.143092 -0.0382927 0.160569 
189 1 -0.169174 0.0507139 -0.065265 0.188285 
2271 1 -0.0528298 -0.117676 -0.111365 0.170414 
319 1 -0.19659 -0.0656726 0.0355324 0.210293 
3566 2 0.0856904 -0.00157596 -0.0438967 0.0962925 
71 1 0.0155598 0.00393062 0.0263144 0.0308222 
1560 1 -0.0959594 0.0700083 0.0671639 0.136456 
190 1 -0.0772519 -0.0262412 0.138404 0.160662 
123 1 0.0499743 -0.00713699 0.0803578 0.0948986 
27 1 0.00546492 -0.049425 0.0702058 0.0860323 
162 1 -0.021166 0.0583055 -0.0155347 0.0639442 
255 1 -0.152607 -0.0410471 0.0207352 0.159385 
304 1 -0.00290098 0.0213749 -0.10232 0.104569 
321 1 0.0215665 -0.0370783 0.131746 0.138553 
682 1 -0.0811789 0.00430759 -0.0172342 0.0830999 
3469 2 0.0212474 0.00204413 -0.0947178 0.0970932 
3539 2 -0.00591679 -0.00571493 0.0909873 0.0913584 
128 1 -0.0138987 -0.0673894 -0.0956919 0.117862 
3562 2 0.108402 0.00551426 0.0907144 0.141458 
560 1 -0.20324 -0.0731834 -0.0764576 0.229147 
212 1 0.0602701 0.0139409 -0.0547713 0.0826241 
355 1 0.0293974 0.0432128 0.0693974 0.0868766 
156 1 0.0236213 0.0504855 0.0566592 0.0794797 
3620 2 0.113631 -0.0406004 0.00419395 0.120739 
1823 1 0.156364 -0.194935 -0.0764394 0.261328 
1805 1 -0.133047 -0.0121352 0.135436 0.190241 
2599 1 -0.0794113 0.0644933 0.0958618 0.140196 
327 1 0.127792 0.0892821 0.0678427 0.170014 
137 1 0.0724972 0.0266679 -0.0327932 0.0839191 
2334 1 0.017879 0.00071352 0.0109474 0.0209765 
3698 2 -0.00990706 -0.00459983 -0.0719315 0.0727561 
555 1 -0.0285741 -0.0178655 -0.026857 0.0430924 
4178 2 0.0102956 0.00415391 -0.0258796 0.0281604 
290 1 0.0482472 -0.023225 -0.104248 0.117196 
284 1 0.000866633 0.0749774 0.0380969 0.0841055 
3543 2 -0.0409648 -0.112489 -0.010506 0.120176 
366 1 0.0188728 -0.0043245 0.144625 0.145915 
55 1 0.04455 0.0357277 0.0365965 0.0678268 
273 1 -0.001325 0.0353077 -0.11818 0.123348 
3468 2 0.0675562 0.00843326 0.179061 0.191567 
316 1 0.136624 0.0407625 0.167767 0.220167 
81 1 -0.0403601 -0.0305831 0.000408755 0.0506403 
322 1 0.0459333 -0.018792 0.0521893 0.072019 
239 1 0.0713762 0.00253564 -0.034444 0.079293 
734 1 -0.0218971 -0.108561 -0.0306017 0.114898 
384 1 -0.034137 -0.0990351 -0.0967135 0.142572 
3476 2 0.0502543 0.0881207 0.0188502 0.10318 
311 1 0.0074967 -0.106769 -0.014345 0.107989 
3471 2 0.0494225 0.0168786 0.063584 0.0822824 
1938 1 0.0591298 -0.0165566 0.00205002 0.0614382 
139 1 0.106815 0.0872898 -0.0755171 0.157263 
727 1 0.0967274 -0.167213 -0.0915391 0.213766 
1885 1 0.0471862 0.0789982 0.0517567 0.105575 
2184 1 0.21039 0.0274022 -0.0292128 0.214169 
2494 1 -0.161296 0.026023 -0.0905184 0.186781 
2091 1 0.0131868 -0.00160351 -0.0366716 0.0390034 
281 1 0.0317968 0.11203 0.166088 0.202847 
863 1 -0.0507718 0.0952193 0.00285284 0.107947 
176 1 -0.0695901 0.0438367 -0.105723 0.133947 
3710 2 0.02291 0.0435877 -0.063341 0.0802299 
3572 2 -0.0640205 -0.0708024 -0.0966637 0.135851 
4197 2 0.0510772 0.0199593 -0.152821 0.162362 
343 1 -0.0380011 -0.00997606 -0.0874327 0.0958545 
282 1 0.016446 0.00229554 -0.0792933 0.0810134 
1038 1 0.0335443 0.0234569 0.085262 0.0945783 
408 1 0.124765 -0.0577393 0.0432849 0.144131 
412 1 0.095859 0.0107938 0.0807666 0.125812 
820 1 0.0766526 0.0763237 0.149859 0.184821 
585 1 -0.0258507 -0.0443787 -0.0683008 0.085456 
3609 2 0.0246884 -0.138166 0.0682415 0.156065 
719 1 0.0104698 -0.0502917 -0.00435166 0.051554 
608 1 0.100029 0.122173 0.113235 0.194304 
106 1 -0.0123551 0.0597855 -0.00306244 0.0611255 
1047 1 -0.0721851 -0.0680825 -0.0467017 0.109667 
3573 2 0.0850971 0.0603014 -0.0585132 0.119589 
751 1 -0.00388642 -0.0778631 -0.0614124 0.0992434 
259 1 0.0295389 0.00840577 -0.0488121 0.0576699 
245 1 -0.0394136 0.0297464 0.00116468 0.0493926 
613 1 -0.0047832 -0.132073 0.0587079 0.144613 
4296 2 -0.0331034 0.0428735 -0.00542251 0.0544369 
272 1 -0.108092 -0.143568 -0.0522416 0.18715 
4239 2 -0.193567 -0.0696658 -0.0716585 0.217845 
88 1 0.0322357 0.0989263 0.0726045 0.126874 
4 1 0.0760104 -0.0330451 -0.0277909 0.0874179 
361 1 0.148113 0.0426132 -0.12623 0.199217 
358 1 -0.0405007 0.0768272 0.104577 0.135938 
194 1 0.0081883 -0.00209443 -0.0798233 0.0802695 
2373 1 0.0466225 -0.00973827 -0.0575449 0.0746988 
1982 1 0.0736613 0.00288325 0.0900732 0.116394 
3953 2 0.0468216 0.0730998 0.0763596 0.115614 
414 1 0.0283116 0.0601512 -0.1852 0.196771 
3186 1 0.0500482 -0.0129739 -0.0448478 0.0684432 
177 1 0.0818876 0.0156817 -0.00515176 0.0835347 
1962 1 -0.0308897 0.145006 0.138066 0.202591 
706 1 0.0153348 0.0689891 0.00668207 0.070988 
1544 1 0.0225033 -0.166632 0.0315277 0.171075 
4160 2 0.000181696 0.0811746 0.0195477 0.0834953 
19 1 -0.0608337 0.113923 -0.0495955 0.138343 
3624 2 -0.0690253 0.0314943 -0.0611006 0.0974149 
115 1 0.0315546 0.0260372 -0.152032 0.15744 
1102 1 -0.0651763 -0.00198029 0.0754372 0.0997128 
2048 1 0.123305 0.0497148 0.0527567 0.143035 
649 1 0.023813 0.060052 -0.00518512 0.0648089 
113 1 -0.00222691 -0.114667 0.0293837 0.118393 
1150 1 0.0284433 -0.0136165 -0.00621377 0.032141 
620 1 0.0273107 -0.0992845 0.0492016 0.114123 
739 1 0.0481869 -0.0138581 -0.165568 0.172993 
2412 1 -0.0550903 -0.00741659 0.0166543 0.0580285 
3746 2 0.0868595 0.00226333 -0.218192 0.234856 
1225 1 -0.0114762 -0.0215758 0.191045 0.192602 
241 1 0.129549 -0.0651174 -0.0115275 0.145451 
83 1 0.0525346 -0.0578351 -0.00309935 0.0781945 
1006 1 0.0700206 0.0194827 -0.0240008 0.0765409 
4046 2 -0.0748745 -0.0674364 -0.0527583 0.113742 
96 1 -0.0627057 -0.164684 0.0803229 0.193661 
411 1 0.144264 0.0733949 0.029163 0.164467 
2454 1 -0.0113338 -0.03477 0.059193 0.0695789 
404 1 0.0439532 0.0529668 0.029636 0.0749377 
226 1 0.0445559 -0.0321472 0.0267658 0.0611153 
534 1 0.0488337 -0.0468332 0.134362 0.150437 
3538 2 -0.0940099 0.0425467 -0.0392415 0.110399 
761 1 0.041049 -0.0370063 0.0446197 0.071031 
246 1 0.0585961 0.0409634 -0.0457011 0.0848534 
2229 1 -0.132743 -0.0866869 -0.0749528 0.175366 
146 1 0.0413362 -0.169308 -0.0816409 0.192456 
3608 2 -0.0799526 -0.025215 0.0490665 0.0971377 
503 1 0.0970728 -0.051113 -0.0415923 0.117327 
505 1 0.12124 -0.112806 0.0217179 0.167021 
1430 1 -0.0265397 -0.0871005 -0.0822875 0.122728 
97 1 -0.174791 0.0736279 -0.0544589 0.197329 
1723 1 -0.0103891 -0.0518921 -0.0854195 0.100485 
3561 2 0.00337845 0.193484 -0.0494851 0.19974 
20 1 -0.0624531 0.0162984 0.0151562 0.0663003 
263 1 -0.0585213 0.163632 -0.0153184 0.174456 
817 1 0.0857961 -0.0910154 0.0384438 0.130854 
1034 1 -0.0662358 0.0572795 0.00539264 0.0877337 
353 1 -0.00777546 -0.11067 0.158088 0.193133 
1260 1 0.0289643 0.110404 -0.0834453 0.14139 
998 1 0.0237666 0.108608 -0.0651218 0.128846 
1932 1 0.0957533 -0.103463 -0.0674386 0.156273 
36 1 0.0482993 -0.180776 -0.10178 0.213007 
38 1 0.0303098 0.0652728 -0.0699332 0.100349 
3130 1 0.0360622 0.0288768 -0.0300775 0.0551272 
1973 1 0.114614 0.126651 0.114697 0.205747 
307 1 0.110831 -0.038119 0.0578892 0.13072 
2714 1 0.0840138 0.0220597 -0.0361841 0.094097 
28 1 0.0249589 0.0893544 -0.0058309 0.0929578 
1937 1 0.0123864 0.0876779 -0.0660959 0.110497 
562 1 -0.0671278 -0.12368 -0.0458445 0.148002 
3011 1 0.0256732 0.0300216 -0.000218379 0.0395027 
410 1 0.0615102 -0.16634 0.0509204 0.184514 
693 1 0.120561 0.0591143 0.157444 0.206925 
367 1 0.00738762 0.0112843 -0.0146891 0.0199419 
318 1 0.068023 0.0368838 -0.171553 0.188196 
735 1 0.164466 0.0174365 0.0382217 0.169747 
600 1 0.030319 -0.00446347 0.0555102 0.0634078 
3590 2 0.0905857 0.129256 0.0958296 0.184652 
3636 2 0.0456816 -0.0673394 -0.0238586 0.0847976 
26 1 -0.123315 -0.000576421 0.104965 0.16194 
1199 1 0.0714614 0.102769 -0.0607471 0.139135 
614 1 -0.00251961 0.110343 -0.118081 0.161633 
459 1 -0.125416 -0.021926 -0.0284752 0.130463 
3645 2 0.0679827 0.110874 0.0454978 0.137785 
574 1 0.0609751 -0.0693816 0.14163 0.169089 
780 1 0.13678 0.0367604 0.0116987 0.142116 
161 1 -0.0871931 -0.0305899 0.19239 0.21343 
309 1 0.0973727 0.0590219 -0.0200287 0.115612 
365 1 0.0845682 -0.113279 0.0584026 0.152953 
191 1 -0.076137 0.0707855 -0.0174631 0.105415 
1766 1 -0.0637998 -0.0631705 0.00459739 0.0899003 
2775 1 0.104867 -0.0930897 0.0161741 0.141154 
1030 1 0.0578653 -0.17585 0.0369299 0.188774 
1505 1 0.161145 0.161386 0.159903 0.278535 
3872 2 -0.0526864 0.0444509 -0.0471496 0.0835154 
580 1 -0.0120127 -0.0375829 0.0233665 0.0458559 
2054 1 0.00634356 -0.0970713 -0.000980378 0.0972833 
2064 1 0.0280704 0.0282151 0.0435784 0.0590179 
529 1 0.0243419 0.00570821 -0.0484497 0.0545205 
402 1 -0.0453973 0.0708989 -0.0163811 0.0857666 
124 1 -0.129747 -0.0270413 0.0229374 0.134505 
744 1 0.111822 -0.0281987 0.0668217 0.133283 
185 1 0.0541557 -0.0599676 0.0994852 0.128165 
315 1 0.0667499 -0.027483 0.00319969 0.0722573 
655 1 0.00488907 -0.097898 0.185574 0.209871 
765 1 0.0603858 -0.0270688 0.051021 0.0835602 
140 1 -0.0393398 0.0104554 -0.152586 0.157922 
59 1 0.0825756 -0.0720739 0.0881064 0.140628 
54 1 0.0634951 0.0843126 0.0432439 0.114063 
3506 2 -0.0207164 0.103591 -0.126384 0.164721 
666 1 0.0645845 -0.235021 0.110326 0.267541 
43 1 0.0760828 0.0501738 0.146771 0.172765 
334 1 -0.124572 -0.0774626 0.105985 0.180974 
267 1 0.109234 0.0867515 -0.179258 0.227137 
99 1 0.0960875 0.114038 0.0936549 0.176093 
1189 1 -0.12881 0.0175126 -0.17626 0.219012 
201 1 -0.0419047 0.0111107 -0.0308712 0.0532211 
380 1 -0.00917992 0.0889676 -0.0943198 0.129984 
1777 1 -0.0329869 -0.0141306 -0.0660838 0.0751989 
2597 1 0.163246 0.0360513 0.0738098 0.182748 
2484 1 0.176631 -0.0399805 0.0614615 0.191244 
308 1 0.0415437 -0.0174642 -0.0831928 0.0946146 
3918 2 0.00877777 0.18795 0.102963 0.214484 
89 1 -0.112675 0.0201427 0.0311003 0.118612 
300 1 -0.0596922 -0.0233584 0.0351581 0.0731086 
3582 2 0.0828613 -0.0413435 -0.0869673 0.127038 
712 1 0.0201413 0.136705 -0.104545 0.173274 
3836 2 -0.0449895 0.118865 -0.0713009 0.145728 
268 1 -0.0345793 0.0199213 0.0913638 0.0996992 
788 1 0.00536175 0.099898 -0.0391898 0.107444 
4091 2 -0.0450567 0.108449 -0.0149499 0.118384 
371 1 0.00964347 -0.0340578 0.103423 0.109313 
3505 2 0.138656 0.00925964 -0.013613 0.13963 
266 1 0.112262 -0.0157538 -0.104685 0.154304 
3571 2 -0.0128895 -0.0743163 0.0780455 0.108536 
637 1 -0.0455615 -0.0123005 -0.0780654 0.0912215 
157 1 -0.0765754 -0.0519624 0.0224379 0.0952226 
257 1 -0.0527588 0.00997352 0.0628381 0.0826534 
571 1 0.0214576 0.0214256 0.0714707 0.0776372 
665 1 -0.130551 -0.0672867 0.106924 0.181669 
448 1 -0.198523 -0.155961 -0.00416065 0.252493 
827 1 0.0613362 0.0475614 0.0546476 0.0949241 
3475 2 0.0723762 0.00285574 0.0369564 0.0813157 
73 1 -0.0377966 0.0690559 -0.0415653 0.0890223 
373 1 0.0958824 0.0113383 0.0422856 0.105404 
247 1 0.0314452 0.0148041 -0.0839579 0.0908674 
107 1 0.0631205 0.0807998 -0.0740785 0.126493 
675 1 -0.0847908 0.00425357 -0.125658 0.151649 
434 1 0.110238 0.067684 -0.0686595 0.14645 
159 1 -0.043869 0.082879 -0.0817978 0.124436 
32 1 0.0470691 0.13994 -0.0442983 0.154146 
3579 2 0.0988017 0.0206447 -0.182651 0.208685 
394 1 -0.0411808 0.00687698 0.0810856 0.0912032 
260 1 0.0515786 0.00273783 0.0650869 0.0830913 
3972 2 -0.0540861 0.0573562 0.0749638 0.108787 
1801 1 -0.0431574 0.0586514 -0.00549939 0.0730259 
2122 1 0.0490389 0.0524805 0.202346 0.214716 
1966 1 0.0732889 -0.0367077 -0.0522836 0.097223 
291 1 -0.0173227 -0.00737211 0.0740969 0.0764511 
2047 1 0.0820455 0.0370445 -0.0328814 0.0958381 
1899 1 0.0593146 0.0714612 -0.00241397 0.0929018 
622 1 0.025601 0.204337 -0.0284669 0.207893 
1993 1 0.0174689 -0.00818176 0.0375809 0.0422425 
62 1 -0.00359228 0.0103155 0.0554381 0.0565039 
2187 1 -0.0620675 0.0659787 -0.0970081 0.132726 
4318 2 0.0967922 0.0289231 0.0713943 0.123703 
44 1 0.0591134 0.0672329 0.0859931 0.124135 
824 1 0.0123714 -0.0245093 0.0893928 0.0935138 
1282 1 0.0530159 0.0346694 0.0765985 0.0993981 
3626 2 0.163605 0.101881 -0.0729586 0.206081 
819 1 0.0920757 0.131152 0.0384729 0.1648 
773 1 -0.116039 -0.157125 0.0687624 0.207079 
270 1 -0.0580215 -0.0536569 -0.0554086 0.0965177 
14 1 -0.161826 -0.062406 0.0187366 0.174451 
3540 2 0.0548533 -0.153547 0.0557226 0.172309 
997 1 0.0481059 0.0855399 -0.125587 0.159385 
4275 2 -0.0350251 -0.0941487 -0.218135 0.240153 
164 1 -0.00124566 0.00291175 0.0835131 0.0835731 
234 1 -0.00314736 -0.00730014 0.0310623 0.0320634 
1125 1 -0.00845048 -0.0765365 -0.082347 0.11274 
3985 2 0.0467686 0.0507365 0.0508219 0.0856992 
328 1 0.015886 0.0114912 -0.0197407 0.0278228 
3474 2 0.0820997 0.00509286 -0.0614893 0.1027 
543 1 -0.00334441 -0.0402919 0.00808716 0.0412313 
293 1 0.0763602 -0.0867649 0.127163 0.171841 
3458 2 0.129896 -0.0015047 0.104447 0.166687 
390 1 -0.0275378 0.0026293 -0.137821 0.140569 
3706 2 0.0592267 -0.224518 -0.206209 0.310545 
2169 1 0.104078 0.0409589 -0.103596 0.152453 
1786 1 0.0950274 -0.0344834 0.0275098 0.104767 
1478 1 -0.0449146 0.0191164 0.0467331 0.0675777 
87 1 0.0186764 -0.0108936 -0.0304936 0.037381 
4090 2 -0.102619 -0.0419091 0.0164051 0.112054 
142 1 0.0257032 0.0230634 0.0041156 0.0347781 
1650 1 -0.0795134 -0.120039 0.000466744 0.143986 
153 1 0.112517 -0.0600911 0.0125621 0.128175 
374 1 0.0127499 -0.0894053 -0.129532 0.157906 
602 1 0.0109572 -0.0032522 -0.145248 0.145697 
1277 1 -0.0379623 0.0378312 0.0214918 0.0577428 
76 1 0.0478938 0.0214906 0.200738 0.207489 
1370 1 0.0406698 -0.0411974 0.0561425 0.0806427 
221 1 -0.0561511 0.0348916 -0.0492944 0.082464 
604 1 -0.0931354 0.00555657 0.0713156 0.117435 
1161 1 0.0199144 -0.0588674 0.106894 0.123646 
1718 1 -0.0226297 0.0267702 -0.0789862 0.086415 
178 1 -0.104877 -0.288818 -0.0131448 0.307551 
295 1 -0.176378 -0.101197 -0.00576869 0.203429 
1472 1 -0.0687285 -0.0286971 -0.0625152 0.0972382 
4159 2 -0.00291643 -0.0544432 -0.0153226 0.0566334 
3467 2 0.0514562 0.0396757 -0.0954947 0.115504 
3531 2 -0.0969471 -0.0657609 0.134787 0.17858 
2720 1 0.00786051 0.022171 -0.0800486 0.0834333 
1851 1 -0.0149525 0.00345642 -0.00336257 0.0157109 
732 1 0.0304586 -0.0944495 0.0130749 0.100097 
446 1 -0.309182 0.0877391 0.104542 0.337966 
3878 2 0.060443 0.130219 -0.0415368 0.149451 
3185 1 -0.142144 -0.00413901 -0.0302951 0.145395 
110 1 -0.125038 0.00565825 -0.00820871 0.125435 
2963 1 -0.00861945 0.0750641 -0.0210032 0.0784222 
2608 1 0.0104037 -0.0106487 0.0425079 0.0450395 
3301 1 0.0205011 0.0350525 0.143614 0.149245 
3759 2 -0.0501202 -0.0358724 -0.0300006 0.0685485 
4171 2 -0.116778 0.0209478 0.107232 0.159921 
2118 1 -0.0241028 0.0104112 -0.0926622 0.09631 
1742 1 0.0167156 0.000638313 0.0328023 0.0368214 
642 1 0.0588112 -0.257658 -0.0180418 0.264899 
3366 1 -0.0568807 -0.000317917 0.0479779 0.0744137 
144 1 0.0869319 0.0586727 -0.0560985 0.11894 
681 1 -0.0151738 0.00748781 -0.0426837 0.0459152 
1666 1 0.000600239 -0.0466445 -0.0669718 0.0816167 
183 1 -0.0682155 -0.107763 -0.0461769 0.135641 
694 1 -0.0918382 0.0373697 0.0727261 0.122963 
444 1 -0.0639931 0.0206424 -0.123677 0.140774 
869 1 -0.0293224 -0.135349 0.131867 0.191227 
920 1 -0.0904891 -0.161827 0.115851 0.218627 
53 1 0.113353 0.0135418 0.0431525 0.122043 
1450 1 -0.299562 0.00415366 -0.0832851 0.310952 
1579 1 -0.0079668 -0.0508415 0.0290841 0.0591118 
51 1 0.0771338 -0.0759097 -0.0173936 0.10961 
4187 2 -0.0434338 -0.0697382 -0.14005 0.16237 
1694 1 0.028206 -0.0654098 0.258554 0.268187 
1590 1 0.0542528 0.00388458 -0.0342161 0.0642589 
2005 1 0.110187 -0.144039 0.132807 0.22478 
736 1 -0.149794 0.0245409 -0.0401941 0.157023 
363 1 0.154285 0.015901 0.00817716 0.155318 
230 1 -0.0445448 -0.0194151 0.151861 0.159446 
2538 1 0.0974495 -0.116965 -0.0414174 0.157774 
357 1 -0.0417832 0.0189173 -0.0609927 0.0763139 
3849 2 0.19415 -0.0731504 -0.177101 0.272781 
4102 2 0.0462154 -0.141823 0.0571623 0.159741 
1032 1 0.0871102 0.0651798 0.0810591 0.135673 
78 1 0.00138709 0.0449291 -0.00595537 0.0453433 
564 1 0.290746 -0.0765556 0.093177 0.314763 
797 1 0.147584 -0.0631477 0.0379367 0.164948 
1476 1 0.266226 0.0915416 0.013217 0.281835 
872 1 -0.0353472 0.0211857 0.00580328 0.0416166 
475 1 0.0659051 0.0144744 -0.0127484 0.0686695 
4119 2 0.281863 -0.141045 -0.0902089 0.327838 
576 1 -0.0674066 0.108857 0.0894598 0.156194 
507 1 0.0341425 -0.186588 0.0410608 0.194079 
248 1 0.0308759 -0.0668568 -0.0519559 0.0901253 
3597 2 -0.0508786 0.0344492 0.0585866 0.0848986 
539 1 -0.0321721 -0.0574644 0.00958484 0.0665512 
63 1 0.0617978 -0.045787 0.142528 0.161956 
57 1 -0.0445046 -0.132264 0.0338134 0.143589 
854 1 -0.0818928 -0.0308888 0.0235204 0.0906298 
668 1 0.0755749 -0.131996 -0.0584719 0.162952 
385 1 -0.0932194 -0.298799 0.148999 0.346657 
752 1 -0.0155852 0.043823 -0.0407841 0.0618603 
3650 2 0.0269436 0.159033 -0.112724 0.196784 
3736 2 -0.0828172 -0.208322 0.0873437 0.240595 
254 1 -0.160732 -0.11972 -0.00630906 0.200518 
3637 2 -0.0339964 -0.087307 -0.0402049 0.101954 
731 1 -0.0475478 -0.122161 0.0372551 0.136279 
2304 1 0.0807899 -0.172452 0.0409258 0.194786 
610 1 -0.218196 0.0303865 -0.11327 0.247716 
292 1 -0.136796 0.0297343 -0.0405229 0.145737 
313 1 -0.0693186 -0.0072443 0.00382772 0.0698011 
2133 1 -0.040469 -0.0703303 -0.0501659 0.0953977 
646 1 -0.0870205 -0.0176393 -0.0965424 0.131165 
271 1 0.0322268 0.128153 0.0392329 0.137844 
584 1 -0.0470144 0.12863 -0.0426037 0.143427 
3649 2 -0.0890384 -0.0378251 0.0740742 0.121842 
1148 1 -0.0327902 0.126532 0.143327 0.19398 
779 1 -0.134984 -0.0910766 0.0752417 0.17938 
621 1 -0.129325 0.0802662 -0.00942575 0.152501 
16 1 -0.030301 -0.0644922 0.0902303 0.114973 
3635 2 -0.101915 -0.250824 0.0905644 0.285484 
790 1 0.0983242 0.00586839 0.135038 0.167144 
17 1 -0.0150409 -0.0481219 0.11296 0.123701 