ITEM: TIMESTEP
54
ITEM: NUMBER OF ATOMS
4320
ITEM: BOX BOUNDS pp pp pp
0.0000000000000000e+00 1.9309999999999999e+01
0.0000000000000000e+00 1.9309999999999999e+01
0.0000000000000000e+00 9.6549999999999994e+00
ITEM: ATOMS id type c_displacement[1] c_displacement[2] c_displacement[3] c_displacement[4] 
4012 2 0.0403927 -0.0774572 -0.0151989 0.088669 
2361 1 -0.0343371 -0.0983227 -0.0762357 0.129067 
79 1 -0.0433997 -0.0771319 0.0149028 0.0897495 
781 1 0.0594688 -0.0271868 0.102504 0.121584 
461 1 0.00595443 0.0324329 -0.0273761 0.0428579 
3704 2 0.00573949 -0.086397 0.0148904 0.0878585 
629 1 -0.0676217 0.0947385 0.0381144 0.122478 
1571 1 0.0123978 -0.0165283 -0.031966 0.038062 
58 1 0.101267 0.0857025 0.10975 0.172177 
2372 1 -0.0543962 -0.0358662 -0.00862732 0.0657249 
372 1 0.0136131 -0.0573705 -0.0154373 0.0609508 
3504 2 -0.0234052 -0.0839019 0.0419385 0.0966756 
4130 2 0.0354677 -0.022948 -0.0895708 0.0990328 
1262 1 0.0601552 0.0894462 -0.0620266 0.124365 
907 1 -0.106027 -0.0649655 -0.141745 0.188558 
3659 2 -0.00425752 0.168047 -0.102793 0.197039 
1298 1 0.0532591 0.0729359 -0.1035 0.137362 
1716 1 0.0398848 0.0757904 -0.0690031 0.109984 
1182 1 0.0425634 0.0218104 -0.0220397 0.0526601 
683 1 -0.0218338 -0.0528276 0.0600716 0.0829221 
1958 1 -0.00438759 -0.059391 0.0535487 0.0800874 
1554 1 0.035818 -0.0802815 -0.0790101 0.118197 
1037 1 -0.00487171 -0.152018 0.0214268 0.153598 
749 1 -0.102414 -0.0906364 0.0466272 0.144491 
3628 2 0.0486577 0.0603945 -0.002842 0.0776089 
946 1 -0.0518358 -0.0147922 -0.0569736 0.078433 
2232 1 -0.0165303 -0.0826921 -0.0947343 0.12683 
7 1 0.0401019 0.00695826 0.0305376 0.0508834 
501 1 -0.00777933 0.0495052 -0.0728076 0.0883868 
179 1 -0.0331737 -0.0308827 -0.0623558 0.0770875 
714 1 -0.108777 -0.0371218 0.111818 0.160355 
4166 2 0.00407723 -0.0736228 0.0363193 0.0821951 
276 1 -0.0304179 -0.00510263 0.115583 0.119628 
767 1 -0.0507253 -0.0306291 0.0280895 0.065576 
3890 2 -0.188391 -0.0501996 -0.118153 0.227973 
6 1 0.0172844 0.150078 -0.0331053 0.154655 
2086 1 -0.00235585 0.00945868 0.0435791 0.044656 
224 1 0.0760375 -0.0461296 0.0062096 0.0891527 
3660 2 0.0211381 0.00771158 0.0641846 0.0680144 
596 1 -0.0911895 -0.00812507 -0.0081023 0.0919086 
1214 1 0.0228283 -0.0678855 -0.0858199 0.111779 
3686 2 0.0254502 0.0162104 0.0317468 0.043799 
427 1 -0.0916671 0.0726593 0.100548 0.154247 
350 1 0.0149541 0.0654897 -0.0442677 0.0804497 
85 1 -0.0283553 0.0314083 0.0475191 0.0636284 
598 1 -0.00863712 -0.0657523 0.109351 0.127889 
3554 2 0.0409236 -0.0374683 -0.0382916 0.0674156 
29 1 -0.105472 0.0619604 0.00915404 0.122667 
464 1 0.00261673 0.0159458 -0.0979709 0.0992946 
3619 2 -0.0586041 0.047023 0.102109 0.126774 
12 1 -0.0268645 -0.128489 -0.0404316 0.137353 
364 1 -0.134902 -0.00456634 -0.0958905 0.165573 
1849 1 -0.0717033 -0.11131 -0.061888 0.146156 
3663 2 -0.172766 0.0586577 -0.0291883 0.184772 
3517 2 0.0242444 0.00729254 0.118295 0.120974 
25 1 0.194891 -0.001377 -0.0587024 0.203545 
4163 2 0.0313679 -0.0138062 -0.0284086 0.0445152 
399 1 0.0407873 0.0247909 -0.0257626 0.0542393 
4265 2 -0.0606227 0.0704095 0.0554964 0.108224 
527 1 0.0296467 0.028489 -0.0453208 0.0611925 
200 1 0.0871038 0.0409798 0.0957986 0.135808 
1951 1 0.133906 0.11155 0.0459458 0.180237 
644 1 0.0303916 -0.045339 0.0576768 0.0794096 
193 1 0.0460551 0.0960441 0.0342093 0.111874 
550 1 0.0186686 -0.0319529 -0.0335756 0.0499682 
69 1 0.0253726 -0.00959993 -0.017786 0.0324387 
842 1 -0.0738115 0.0396447 -0.048897 0.097009 
578 1 -0.00810685 -0.00700188 0.0195201 0.0222661 
172 1 -0.0271201 -0.0531945 0.0240047 0.0643535 
381 1 -0.0185411 0.00897143 -0.0474796 0.0517549 
3524 2 0.0569876 -0.101857 0.136461 0.179567 
688 1 -0.0852025 0.106826 -0.0243179 0.13879 
3651 2 -0.0522903 0.0522881 0.0506647 0.0896394 
2367 1 0.0431565 0.00630008 -0.0287181 0.0522198 
1244 1 -0.0996469 -0.0364452 0.00225929 0.106127 
796 1 -0.0709333 0.109678 -0.0373063 0.13584 
691 1 0.0546127 -0.0125297 0.0163829 0.0583775 
421 1 0.0642236 0.0456458 0.0646258 0.101905 
597 1 -0.0228215 0.0588829 2.68143e-05 0.0631507 
3617 2 0.053993 -0.00480454 -0.0422158 0.0687059 
120 1 0.0843928 0.137305 0.0756048 0.17802 
769 1 -0.0710424 -0.0229107 0.052069 0.0910115 
2142 1 -0.00836502 0.0399755 -0.0342088 0.0532752 
3611 2 0.158059 0.0312291 0.163551 0.229579 
1915 1 -0.0146462 0.0631533 0.0521043 0.0831728 
2140 1 0.00915983 -0.0187054 0.108075 0.110063 
3828 2 0.118226 0.0425296 0.0594458 0.138997 
3204 1 -0.000895254 0.067005 0.0460857 0.0813288 
175 1 0.108106 0.0316485 -0.0409846 0.119868 
2011 1 0.132863 0.0480615 -0.0245818 0.143411 
75 1 0.00480513 0.121785 -0.047399 0.130772 
547 1 -0.00336518 -0.037838 -0.104044 0.110762 
4316 2 -0.0775987 0.0532366 -0.0587073 0.110915 
559 1 0.0316923 0.0432461 -0.0119052 0.0549214 
717 1 -0.0159077 0.08211 -0.0534799 0.0992734 
242 1 0.00146794 -0.0401445 0.0790188 0.0886437 
3510 2 -0.0902437 0.029184 0.113972 0.148274 
130 1 0.106809 -0.0276063 0.130669 0.17101 
143 1 -0.0106057 0.0691495 -0.0728741 0.101019 
202 1 -0.14971 -0.091944 -0.0702945 0.18923 
182 1 -0.135045 0.0471241 0.00330704 0.143069 
84 1 0.0430834 -0.0280179 -0.0253239 0.0572929 
3633 2 0.0098517 -0.0671323 0.0264451 0.0728227 
35 1 -0.162437 0.0328934 0.125549 0.207919 
3612 2 0.0269061 0.0419998 -0.0250845 0.0558314 
40 1 0.156329 0.101162 0.0881437 0.206014 
4005 2 0.0631722 -0.0815294 0.0419534 0.111346 
718 1 -0.0908618 -0.0114967 -0.0566014 0.107665 
134 1 -0.0287753 0.00170652 0.106101 0.109948 
511 1 -0.0506256 -0.0478169 0.00973357 0.0703146 
757 1 0.031121 0.157328 0.00485199 0.16045 
3555 2 -0.0705403 0.0760683 0.0464514 0.113666 
3481 2 -0.0277873 -0.0156295 -0.0411031 0.0520181 
135 1 0.00916037 -0.0439949 -0.0711232 0.0841307 
369 1 0.0695167 -0.0401326 0.0801324 0.113421 
2148 1 -0.0987582 -0.0594421 0.0395721 0.121871 
3462 2 0.0524446 -0.0670145 -0.169204 0.189397 
1914 1 0.00603995 0.0595598 0.0104727 0.0607745 
3661 2 0.0907152 -0.132252 0.0120239 0.160824 
1871 1 0.0146911 0.0364325 -0.0474581 0.061607 
320 1 -0.0560863 -0.0367784 -0.0470964 0.0819536 
582 1 -0.0257391 -0.106379 -0.0480176 0.119519 
766 1 -0.0249156 0.0151597 -0.00145588 0.0292014 
3552 2 0.00931866 -0.0276801 -0.000807222 0.0292177 
2290 1 -0.0438591 0.0354512 0.0288031 0.0633248 
1794 1 -0.00259012 0.0579568 0.0876482 0.105109 
753 1 -0.0509421 0.0446353 0.0563167 0.0880851 
396 1 0.00619741 -0.00887327 0.148451 0.148845 
496 1 -0.00278741 -0.00400316 -0.095461 0.0955856 
480 1 -0.0454519 -0.0607438 0.0861085 0.114762 
253 1 0.0477478 -0.00644329 -0.024152 0.0538951 
4033 2 -0.015097 0.0240569 -0.0642944 0.0702881 
347 1 -0.044665 0.0223413 -0.0285621 0.0575316 
586 1 -0.105092 0.0485604 -0.113444 0.162087 
3671 2 0.0424001 0.0193442 -0.0598928 0.0758889 
37 1 0.0232597 -0.127788 -0.0062252 0.130037 
782 1 0.0300081 -0.133371 -0.0375953 0.141781 
481 1 0.0859735 -0.0254624 -0.0807033 0.120635 
392 1 -0.0325791 0.0446151 -0.0966746 0.111346 
333 1 0.0509322 -0.0402173 -0.0196534 0.0678069 
342 1 -0.0249583 -0.0424734 -0.0364205 0.0612647 
1179 1 -0.00158597 -0.0292743 -0.0624452 0.0689848 
517 1 0.00896441 -0.0930367 -0.025567 0.0969013 
1824 1 0.0521219 -0.0525354 0.105721 0.129049 
34 1 0.0783801 0.00336687 0.0362733 0.0864322 
398 1 -0.0141116 -0.0551339 -0.0797083 0.0979403 
170 1 -0.0691055 -0.0672483 -0.0577005 0.112371 
235 1 0.0444663 -0.107101 0.0857515 0.144226 
3852 2 -0.0325414 -0.000850335 -0.0131375 0.0351036 
816 1 0.0435805 -0.0331118 -0.0808976 0.0976733 
3931 2 -0.139342 -0.132643 0.0925775 0.213497 
274 1 -0.0236147 -0.0541281 -0.0188648 0.0619951 
30 1 -0.00764077 -0.0303333 -0.0375055 0.048838 
2066 1 0.076908 -0.0392426 0.140951 0.165294 
1082 1 -0.0112295 -0.111071 0.0936293 0.145703 
1372 1 0.00643929 -0.0520764 0.104865 0.117261 
1265 1 0.0818049 -0.0407871 -0.0844929 0.124478 
601 1 -0.0179984 0.0744912 0.0174137 0.0785883 
540 1 -0.0200408 -0.0452002 -0.00688291 0.0499206 
589 1 -0.045252 0.14958 0.11149 0.191968 
958 1 0.130897 -0.0168773 0.01274 0.132594 
504 1 -0.0833026 0.053793 -0.0318802 0.10416 
1349 1 -0.100481 0.011089 -0.0673433 0.121469 
9 1 0.0229076 -0.124145 0.020818 0.127946 
149 1 -0.011563 0.0688717 -0.0181029 0.0721438 
163 1 0.0171367 -0.156853 0.0446115 0.163971 
4247 2 0.0203624 -0.0738808 -0.0473416 0.090079 
1584 1 0.168792 -0.0113929 -0.085465 0.189538 
3570 2 -0.0345651 -0.0961269 -0.01477 0.103215 
237 1 0.0183185 0.060273 0.077587 0.0999407 
490 1 0.00277439 -0.0786569 -0.031127 0.0846374 
50 1 -0.0361926 -0.0263291 0.0185951 0.0484655 
152 1 0.0783662 0.00185962 -0.0844536 0.115226 
3652 2 -0.046059 -0.0349187 0.000386938 0.0578005 
3823 2 0.056484 0.0954675 -0.13191 0.172351 
902 1 0.0259582 0.0655203 -0.0143484 0.0719208 
3574 2 -0.0394057 0.0619552 -0.0576477 0.0933516 
770 1 -0.0144235 -0.0677789 -0.0507817 0.0859116 
154 1 -0.0319787 -0.0491922 -0.00660943 0.059044 
116 1 0.0954695 -0.0574658 0.0618366 0.127438 
710 1 -0.0909381 -0.157908 -0.0989062 0.207333 
1956 1 -0.0371473 0.0195058 -0.0217109 0.0472416 
1810 1 -0.110772 -0.0328878 0.0608123 0.130577 
2072 1 -0.0689218 -0.036241 0.00542935 0.0780584 
1649 1 -0.0593978 0.0268061 -0.0834988 0.105918 
186 1 -0.0547993 0.0570753 0.0755048 0.109369 
1063 1 -0.0843824 0.113827 -0.175572 0.225615 
432 1 -0.144959 0.0688008 -0.142151 0.214368 
2495 1 -0.0378942 -0.10345 0.0665205 0.128696 
3896 2 -0.00133964 -0.015624 -0.0832548 0.0847187 
4115 2 0.0319736 -0.00879418 -0.0292248 0.0442011 
913 1 0.0571344 -0.0426304 0.0198391 0.0739952 
1068 1 -0.0294407 0.0116023 -0.0248954 0.0402635 
265 1 -0.0849376 -0.0111221 -0.053607 0.101053 
1287 1 0.0406346 0.106497 0.0225719 0.1162 
3799 2 0.0816715 -0.0735344 -0.130897 0.170914 
554 1 0.0680906 -0.0815218 -0.0280063 0.109848 
1414 1 -0.010541 0.0510402 -0.0678287 0.0855391 
213 1 0.00775541 -0.00466975 0.039713 0.0407317 
341 1 -0.0938109 -0.0426463 -0.0347718 0.108758 
3682 2 -0.0251334 0.0557593 -0.0578866 0.0842119 
754 1 -0.0823196 0.0499977 0.0194644 0.0982606 
112 1 -0.0611574 0.0443208 0.00262693 0.0755743 
1041 1 -0.0160979 -0.0336121 0.0253076 0.0450487 
119 1 0.0259087 0.0530879 0.0434626 0.0733388 
415 1 -0.0426423 0.0254897 -0.0457112 0.06751 
995 1 -0.0693934 0.0510205 0.0240939 0.0894374 
4128 2 0.0217103 -0.033291 0.167549 0.172198 
8 1 0.032223 0.0663149 0.00664058 0.0740276 
94 1 0.0329901 -0.0446192 -0.0105064 0.0564766 
48 1 0.0421915 0.0161572 0.0445385 0.0634418 
437 1 -0.00793175 -0.0584472 -0.0573961 0.0823001 
3866 2 0.0659334 0.0256854 -0.0345112 0.0787272 
2206 1 0.0203845 0.00304903 -0.0184114 0.027637 
3490 2 -0.099063 0.019065 -0.0314346 0.105665 
3072 1 -0.0263233 -0.0803133 0.0441372 0.095348 
3002 1 0.0792458 0.123843 0.0420385 0.152919 
92 1 0.0488891 0.0901151 0.103294 0.145536 
335 1 -0.0274335 0.0754101 -0.0390385 0.0892372 
2192 1 -0.00668553 0.00695031 0.0787598 0.0793481 
1186 1 0.0303924 -0.017756 -0.00877712 0.0362769 
1114 1 0.0528353 -0.00105999 0.0284324 0.0600091 
1821 1 -0.0585072 -0.0720967 -0.0694916 0.115975 
1922 1 0.0481138 -0.0889521 0.0465744 0.11134 
451 1 -0.113559 -0.0389471 -0.00748782 0.120285 
3960 2 -0.00375274 -0.0394441 0.0331214 0.0516425 
100 1 -0.0321668 0.0373353 -0.0906829 0.103209 
1180 1 0.0227781 -0.0499319 -0.0934747 0.108395 
165 1 0.0674743 -0.0331125 -0.0033235 0.0752347 
388 1 -0.073742 -0.0432231 -0.0605269 0.104736 
3742 2 0.0729138 -0.0575471 0.0165332 0.0943474 
323 1 -0.13335 0.149623 -0.0394905 0.204276 
288 1 -0.0802761 0.0178216 -0.00361231 0.0823098 
3942 2 -0.0826298 0.0743188 0.102974 0.151508 
66 1 0.0676311 0.0259215 0.061756 0.0951824 
340 1 0.0213693 0.035876 -0.0377615 0.0562998 
138 1 -0.0167233 -0.016655 0.0182572 0.0298393 
879 1 -0.00989406 -0.0306005 -0.0732144 0.0799664 
3808 2 0.0734042 0.0889196 -0.0231556 0.117606 
834 1 0.0178393 0.0244135 0.0136755 0.0331856 
18 1 -0.0778059 -0.0633918 -0.0936928 0.137298 
3679 2 0.0551068 -0.0399055 -0.0421434 0.080033 
52 1 0.048287 -0.0698263 -0.0015365 0.08491 
407 1 0.00926613 0.0111994 -0.068344 0.0698727 
360 1 0.0668805 -0.0495811 -0.0853443 0.119226 
2885 1 -0.0982003 -0.0384374 -0.0148734 0.106499 
3526 2 -0.0231818 -0.223463 -0.0622772 0.233134 
310 1 -0.0803278 -0.0431953 -0.0161939 0.0926317 
326 1 0.118672 -0.0120871 0.0698047 0.138209 
227 1 -0.0257185 -0.0457834 -0.0357862 0.0635469 
2068 1 -0.134326 -0.0248639 -0.110059 0.175427 
456 1 0.0481302 -0.0139822 0.0410601 0.0647916 
279 1 -0.0137405 0.0304894 0.112906 0.117755 
305 1 -0.00996682 0.0426409 -0.0545613 0.0699608 
49 1 0.000290679 0.0982636 0.0592908 0.114766 
3512 2 0.0161579 -0.110952 0.0403777 0.119171 
11 1 -0.0777785 -0.183573 0.02895 0.201461 
189 1 -0.0764819 0.111401 0.0592569 0.14755 
2271 1 -0.118201 -0.0437215 -0.0168634 0.127151 
319 1 -0.0987167 -0.0582095 0.000539522 0.114602 
3566 2 0.0257904 0.063744 -0.0648008 0.0944859 
71 1 0.0280232 0.00416952 0.0467828 0.0546929 
1560 1 -0.0248653 -0.0186431 0.0515951 0.0602321 
190 1 -0.044732 -0.0083361 0.0928969 0.103442 
123 1 0.0780419 0.00652395 0.0911514 0.120174 
27 1 -0.038117 -0.00732091 -0.0296167 0.0488226 
162 1 -0.000131188 0.0216446 -0.0977786 0.100146 
255 1 -0.106969 0.00448064 -0.024616 0.109856 
304 1 -0.081498 -0.0083224 -0.0630544 0.103378 
321 1 0.0111284 -0.0588982 0.147016 0.158765 
682 1 -0.077418 0.0252727 0.00674901 0.0817179 
3469 2 0.0434294 0.0301194 -0.0851149 0.100189 
3539 2 0.0234902 0.0257044 0.107676 0.113167 
128 1 0.0557458 -0.0605401 -0.0804317 0.115074 
3562 2 0.108226 0.0232036 0.114852 0.159506 
560 1 -0.152089 -0.0550502 -0.0282863 0.164201 
212 1 -0.0547633 0.0614135 -0.0500118 0.0962903 
355 1 0.0220075 0.0585713 0.0947128 0.113514 
156 1 0.0230052 0.0819565 0.0609867 0.104716 
3620 2 0.0333341 -0.0686499 -0.010808 0.0770765 
1823 1 0.197413 -0.135566 -0.0915062 0.256366 
1805 1 -0.0904455 0.0604499 0.0934987 0.143445 
2599 1 -0.0722047 0.0226485 0.066452 0.100709 
327 1 0.0735029 0.00685937 0.0253042 0.0780386 
137 1 0.0685705 0.0264122 0.0260146 0.0779505 
2334 1 -0.00352134 0.0343664 0.0424327 0.0547174 
3698 2 0.0330793 -0.0682514 0.00375498 0.0759381 
555 1 -0.0273372 -0.0513537 -0.0521507 0.0781295 
4178 2 0.00292092 -0.0916457 0.0544653 0.106649 
290 1 -0.00960687 0.031421 -0.0111257 0.0346894 
284 1 0.0184599 0.0206785 -0.044343 0.052294 
3543 2 -0.0443842 -0.0279607 0.0328393 0.0618884 
366 1 0.0335364 -0.0333918 0.0745318 0.0882876 
55 1 -0.0034868 0.0477007 -0.0135289 0.0497046 
273 1 -0.0309689 -0.0391189 -0.0441785 0.0666416 
3468 2 0.0893699 -0.0071352 0.072287 0.115166 
316 1 0.132449 0.0127113 0.109172 0.172113 
81 1 -0.0600401 -0.0126745 0.00663052 0.0617205 
322 1 0.0407908 -0.0487764 0.0329192 0.0716009 
239 1 -0.00277263 0.0121114 -0.0599026 0.0611776 
734 1 -0.0134042 -0.0687232 -0.0579637 0.0908974 
384 1 0.0796498 -0.0758212 -0.0845295 0.138702 
3476 2 0.00142193 0.0990065 0.0119989 0.099741 
311 1 -0.0380242 -0.0669228 -0.0758495 0.108063 
3471 2 0.0242069 0.0350382 0.0516566 0.0669481 
1938 1 0.0595059 -0.0655989 0.004626 0.088688 
139 1 0.163093 -0.0303096 -0.0139186 0.166469 
727 1 0.0833805 -0.0735906 0.0357705 0.116822 
1885 1 -0.00627079 0.033068 -0.062873 0.071315 
2184 1 0.159029 0.148063 -0.0831937 0.232667 
2494 1 -0.166169 -0.0375804 -0.150541 0.227348 
2091 1 -0.0226799 0.0125711 -0.0691218 0.0738257 
281 1 0.0278767 0.106962 0.119528 0.162803 
863 1 0.0058865 0.0748347 -0.0699933 0.102635 
176 1 -0.067246 0.056438 -0.0572 0.104781 
3710 2 -0.00186014 0.0699773 -0.0526316 0.0875807 
3572 2 -0.010877 -0.108281 -0.0897391 0.141054 
4197 2 -0.070678 0.0731971 -0.0680528 0.122411 
343 1 -0.0400521 -0.0420908 -0.116179 0.129897 
282 1 -0.048621 -0.0329311 -0.0398189 0.0709507 
1038 1 -0.00343807 0.0795317 0.0532354 0.0957659 
408 1 0.18738 0.0248653 -0.0107394 0.189327 
412 1 0.136972 -0.0480437 -0.014393 0.145866 
820 1 0.128528 0.0207882 0.0716171 0.148595 
585 1 -0.0909996 -0.0332772 -0.0995908 0.138948 
3609 2 0.0746485 -0.106787 0.0222374 0.132175 
719 1 -0.0165025 0.060817 -0.0261871 0.0682408 
608 1 0.0275061 0.0509831 0.0397074 0.0702321 
106 1 0.000667471 0.0563379 0.0598597 0.0822046 
1047 1 -0.125028 -0.0411734 -0.0318283 0.135426 
3573 2 0.021116 0.0420905 -0.0775734 0.0907476 
751 1 -0.0130276 -0.0168415 -0.0792477 0.0820582 
259 1 0.0746827 -0.0386072 0.00503762 0.0842224 
245 1 -0.0784559 -0.0404804 -0.0236775 0.0914036 
613 1 -0.055422 -0.0508042 0.11901 0.14077 
4296 2 -0.0239405 0.0532199 0.0284091 0.0649044 
272 1 -0.110262 -0.12176 -0.0305668 0.167085 
4239 2 -0.0762677 -0.1072 -0.0743852 0.151135 
88 1 0.0852988 0.10254 0.0989948 0.166104 
4 1 0.0803326 -0.00532283 -0.0748756 0.109945 
361 1 0.0974922 0.106642 -0.150052 0.208309 
358 1 -0.0573649 -0.0131188 -0.00883449 0.0595053 
194 1 0.0193785 0.0419423 -0.0920974 0.103037 
2373 1 0.0220346 -3.39151e-05 -0.109106 0.111309 
1982 1 0.0348255 0.012988 0.0388137 0.0537402 
3953 2 0.00454065 0.0317276 0.0888618 0.0944652 
414 1 0.0231211 0.0240462 -0.0766011 0.0835496 
3186 1 0.0975994 -0.0811531 0.00031078 0.126931 
177 1 0.0611118 -0.0488764 0.0394677 0.0876427 
1962 1 -0.0338763 0.0642805 0.11877 0.139234 
706 1 0.0103993 0.0172272 -0.0388041 0.0437113 
1544 1 0.00488876 -0.105934 0.0634502 0.12358 
4160 2 -0.0332843 0.0390757 -0.0295078 0.059207 
19 1 -0.0552526 0.0255745 -0.103747 0.120293 
3624 2 -0.0160238 -0.0134063 -0.0713622 0.0743576 
115 1 0.0900558 -0.0625487 -0.054636 0.122505 
1102 1 -0.0684675 -0.0280878 0.0258286 0.0783827 
2048 1 0.0784563 -0.0228759 -0.0306949 0.0872976 
649 1 0.0401113 0.112743 -0.0381258 0.125592 
113 1 0.0281341 -0.0308748 0.00244581 0.0418422 
1150 1 0.00375464 0.00195188 0.0559831 0.0561428 
620 1 -0.00802546 -0.0430961 -0.0144624 0.0461611 
739 1 -0.0707824 -0.0374445 -0.00891549 0.0805713 
2412 1 0.0134396 0.0395495 -0.0136141 0.0439332 
3746 2 0.0959139 0.0329221 -0.16607 0.194583 
1225 1 -0.00498866 0.0542972 0.101217 0.114969 
241 1 0.108663 0.000107621 0.00323173 0.108711 
83 1 0.0247518 0.000994377 -0.0175737 0.0303723 
1006 1 0.0423727 0.00492721 -0.00410992 0.0428557 
4046 2 -0.0641949 -0.101697 -0.036266 0.125612 
96 1 -0.000932462 -0.131058 0.0203935 0.132638 
411 1 0.0903651 0.0566802 0.0806853 0.133748 
2454 1 -0.0734708 0.0152395 0.0270675 0.0797675 
404 1 -0.0846413 0.0762908 0.0771217 0.137594 
226 1 0.0463903 -0.0153261 0.0713683 0.0864892 
534 1 0.045838 -0.0307033 0.120373 0.132414 
3538 2 -0.0238495 0.0534124 -0.0503331 0.0771693 
761 1 0.0659984 -0.0328793 0.056346 0.0927993 
246 1 0.0689338 -0.0615342 0.0227662 0.0951663 
2229 1 -0.0112671 -0.133308 -3.24951e-05 0.133783 
146 1 -0.0019604 -0.0506684 -0.059004 0.0777985 
3608 2 0.054849 -0.00235838 0.00847614 0.0555501 
503 1 -0.021913 -0.000796988 0.0319334 0.038737 
505 1 0.121004 -0.0438776 0.0147595 0.129558 
1430 1 -0.0788812 -0.0471289 -0.0368154 0.0989886 
97 1 -0.0500973 0.0450514 -0.0948353 0.116332 
1723 1 0.0356575 0.00738938 -0.0899588 0.0970497 
3561 2 0.0607537 0.150394 -0.0462007 0.168653 
20 1 -0.0697044 -0.0583733 0.00243247 0.0909509 
263 1 -0.0574844 0.14734 -0.0021698 0.158171 
817 1 0.0994687 -0.0714072 0.0193825 0.123971 
1034 1 0.0215834 0.027178 0.0170059 0.0386482 
353 1 0.0409393 -0.0149613 0.155356 0.161355 
1260 1 0.0532442 0.11461 -0.0323413 0.130447 
998 1 0.036151 0.0848085 -0.0611254 0.110615 
1932 1 0.114945 -0.15033 -0.0327776 0.192057 
36 1 0.102801 -0.14194 -0.0265837 0.177262 
38 1 0.0147399 0.014753 -0.0546324 0.0584774 
3130 1 -0.0454307 -0.0260221 -0.054881 0.0758487 
1973 1 0.0878109 0.00119806 0.142678 0.167539 
307 1 0.0341552 -0.0470827 -0.0392968 0.0701969 
2714 1 0.0799467 0.0344658 0.0208698 0.0895261 
28 1 0.0716066 0.0317089 0.00424991 0.0784284 
1937 1 0.00196013 0.043564 -0.0510866 0.0671677 
562 1 -0.0781827 -0.116821 0.00312378 0.140604 
3011 1 -0.0496904 0.000981565 -0.00464251 0.0499165 
410 1 0.0841934 -0.0630354 0.0370222 0.111502 
693 1 0.0725313 0.0973875 0.137007 0.183074 
367 1 -0.0150719 0.00378278 0.00447689 0.0161714 
318 1 0.0532146 0.0360645 -0.083307 0.105226 
735 1 0.118284 -0.0135338 0.0203295 0.120779 
600 1 -0.0155775 0.056493 0.0275664 0.0647613 
3590 2 -0.0243025 0.0661933 -0.00277627 0.0705682 
3636 2 0.0494164 -0.0922409 0.0547805 0.118115 
26 1 -0.114403 0.0646636 0.0652697 0.146729 
1199 1 0.0314711 0.0345476 -0.0709035 0.0849192 
614 1 -0.00713887 -0.0345945 -0.0310268 0.047015 
459 1 0.00501396 -0.0835159 -0.0622861 0.104305 
3645 2 0.0731073 0.113997 0.0593329 0.147853 
574 1 0.0535028 -0.0141036 0.05716 0.0795533 
780 1 0.116491 -0.00324446 -0.000719558 0.116539 
161 1 -0.0957443 -0.010785 0.0248901 0.0995128 
309 1 0.116406 0.0814354 0.00527242 0.142161 
365 1 0.0284031 -0.1492 -0.0640878 0.164847 
191 1 -0.0682048 0.081059 0.00683735 0.106156 
1766 1 -0.0457434 0.0372335 -0.0400378 0.0712869 
2775 1 0.0547672 -0.0675015 -0.0700347 0.111628 
1030 1 0.117917 -0.080806 0.0111632 0.143383 
1505 1 0.134299 0.15215 0.11932 0.235422 
3872 2 -0.0158619 0.0283336 -0.00425878 0.0327495 
580 1 -0.0376783 -0.0385417 0.000283677 0.0538999 
2054 1 -0.0911347 -0.0765836 -0.0551697 0.131203 
2064 1 0.106182 0.00954342 -0.0572877 0.121028 
529 1 -0.0124657 0.0465576 -0.0871871 0.0996222 
402 1 -0.0198151 0.0549787 0.0270837 0.0644114 
124 1 -0.0213495 -0.101563 0.0499223 0.115165 
744 1 0.107925 -0.00120723 0.0313539 0.112394 
185 1 0.075934 -0.0352679 0.0924699 0.124742 
315 1 -0.0283207 -0.0433077 -0.0456188 0.0689833 
655 1 -0.0264603 -0.0440171 0.142215 0.151205 
765 1 -0.0149933 0.0681254 0.0244664 0.0739221 
140 1 0.0279348 0.0869008 -0.102676 0.137385 
59 1 -0.0424161 -0.00514561 0.0573485 0.0715154 
54 1 0.00421143 0.0235202 0.0166962 0.0291496 
3506 2 -0.0228858 0.107122 -0.0890834 0.141191 
666 1 -0.03411 -0.133571 0.0680749 0.15375 
43 1 0.0774928 0.0956445 0.0798689 0.146738 
334 1 -0.027476 -0.0205118 0.0165802 0.0380864 
267 1 0.142813 0.0319248 -0.058163 0.157473 
99 1 0.0657037 0.0974377 0.0819676 0.143282 
1189 1 -0.0930853 -0.0386264 -0.156459 0.186108 
201 1 -0.0224221 -0.0910176 -0.0536215 0.107992 
380 1 0.0193333 0.12608 -0.161817 0.206046 
1777 1 0.0144408 -0.0172834 -0.0481292 0.0531383 
2597 1 0.246933 -0.0291824 -0.0144889 0.249073 
2484 1 0.126103 -0.0495822 -0.0815295 0.158137 
308 1 -0.02269 -0.0136672 -0.0444878 0.0517763 
3918 2 -0.0418786 0.092131 0.0537713 0.114601 
89 1 -0.0841407 0.0617963 -0.029577 0.108505 
300 1 -0.0102215 0.00814315 0.00354843 0.0135418 
3582 2 0.0264194 0.0267261 0.00726312 0.0382757 
712 1 -0.0825388 0.0583744 0.0476777 0.111774 
3836 2 -0.0160787 0.0512088 -0.0670254 0.0858678 
268 1 -0.000661875 -0.0151455 0.00659753 0.0165334 
788 1 -0.0190179 0.093667 -0.096558 0.135863 
4091 2 -0.000530462 0.152868 -0.00765088 0.153061 
371 1 0.0319947 0.0779756 0.107754 0.136802 
3505 2 0.0387846 -0.0200404 0.0552937 0.0704504 
266 1 0.0946285 -0.0751038 -0.0656291 0.137486 
3571 2 -0.0181796 -0.026208 0.0650443 0.0724439 
637 1 -0.00687552 -0.00060217 -0.0833867 0.0836719 
157 1 -0.0443044 -0.00326702 0.0702048 0.0830798 
257 1 0.0272383 0.0217089 0.011111 0.0365603 
571 1 -0.0330384 0.0368927 -0.02548 0.0556941 
665 1 -0.144354 -0.0130525 0.167692 0.221651 
448 1 -0.102958 -0.0737467 0.0275634 0.12961 
827 1 0.0895883 0.100155 0.00550591 0.134489 
3475 2 0.0501377 0.0215737 0.0494609 0.0736586 
73 1 -0.0313727 0.086953 0.00228412 0.0924678 
373 1 0.0933673 -0.0151941 0.0892651 0.130064 
247 1 0.0242767 -0.0336075 -0.0518949 0.0664222 
107 1 0.0631917 0.0291367 -0.0236568 0.0734968 
675 1 -0.0469301 0.0750561 -0.106115 0.138189 
434 1 -0.00996812 0.064156 0.0152298 0.0666881 
159 1 -0.0654782 0.0512717 -0.0187201 0.0852444 
32 1 0.0656583 0.0955007 0.0101085 0.116334 
3579 2 0.063952 -0.0666316 -0.0648809 0.112868 
394 1 -0.0465849 0.0146052 0.0539631 0.0727701 
260 1 -0.0376835 0.0529647 0.015384 0.066798 
3972 2 -0.0620302 0.0372991 0.0944093 0.118963 
1801 1 -0.0648808 0.0296234 0.0679051 0.0984793 
2122 1 -0.024375 0.00502944 0.127854 0.130253 
1966 1 -0.00586682 -0.0619346 -0.0878305 0.107631 
291 1 -0.0094883 0.0173653 0.0273536 0.0337609 
2047 1 0.0800151 0.023962 0.0633026 0.104804 
1899 1 0.0153916 0.0753785 0.00505527 0.0770998 
622 1 -0.0525963 0.0660621 0.00368933 0.0845233 
1993 1 -0.0204886 -0.00584044 -0.011965 0.0244347 
62 1 0.0274455 0.0670328 0.0530664 0.0897926 
2187 1 -0.0386858 -0.00775628 -0.106368 0.11345 
4318 2 0.0687596 -0.00954984 -0.00295546 0.0694825 
44 1 -0.0158819 -0.023007 0.0809084 0.0856021 
824 1 0.0268866 -0.00979017 0.0554242 0.0623745 
1282 1 -0.00707857 0.0053858 0.110032 0.110391 
3626 2 0.0994607 0.0732175 -0.0241813 0.125849 
819 1 0.0395867 0.0582268 0.0851183 0.110465 
773 1 -0.116617 -0.131614 0.0393854 0.180203 
270 1 -0.0111821 -0.0609545 -0.00430709 0.0621212 
14 1 -0.0846055 -0.0166916 -0.0370886 0.0938737 
3540 2 0.0567872 -0.00883073 -0.0154652 0.0595142 
997 1 0.0840608 -0.0722857 -0.0291051 0.114624 
4275 2 -0.0308415 -0.0731114 -0.117617 0.141881 
164 1 0.0542864 0.0616164 0.15654 0.176772 
234 1 0.0127671 -0.0436004 0.0784397 0.0906465 
1125 1 -0.0122218 0.0293764 -0.0729524 0.0795889 
3985 2 -0.0691466 -0.0107384 0.073241 0.101296 
328 1 0.0309561 0.00961857 -0.0465013 0.0566848 
3474 2 0.00580723 0.00603485 -0.0483267 0.049047 
543 1 -0.0838317 0.00208669 -0.0102973 0.0844875 
293 1 0.100587 -0.0602889 0.065026 0.134093 
3458 2 0.0815667 -0.048477 0.0869615 0.128707 
390 1 -0.0119343 -0.0313785 -0.0440986 0.0554232 
3706 2 0.104396 -0.167407 -0.078197 0.212223 
2169 1 0.0832724 0.102861 -0.0187515 0.133665 
1786 1 0.00170118 0.0152776 -0.0799713 0.0814353 
1478 1 -0.0113726 0.0190014 0.150689 0.152308 
87 1 0.0223116 -0.0118064 -0.0356549 0.043686 
4090 2 -0.0163916 -0.0481224 0.0406204 0.0650728 
142 1 -0.00860607 0.0291343 0.0439508 0.053428 
1650 1 -0.0802477 -0.0717558 -0.0889247 0.139629 
153 1 0.0192804 0.0289041 0.0092528 0.0359555 
374 1 0.0603586 -0.0197605 -0.0458267 0.0783181 
602 1 0.0149329 -0.0775749 -0.0685381 0.104586 
1277 1 -0.061443 0.0145061 0.0269773 0.0686545 
76 1 9.02612e-05 -0.0528112 0.107371 0.119656 
1370 1 0.0616296 -0.0270008 0.0986375 0.119401 
221 1 -0.0155381 0.080624 -0.0285215 0.0869203 
604 1 -0.031566 0.0575358 0.103364 0.122437 
1161 1 -0.0722426 -0.0503911 0.000510114 0.0880824 
1718 1 -0.130368 0.0291981 -0.129684 0.186189 
178 1 -0.00133461 -0.208204 -0.0168343 0.208888 
295 1 -0.125532 -0.0622432 0.0159725 0.141024 
1472 1 -0.0815578 -0.0302056 0.0130678 0.0879479 
4159 2 -0.00708852 -0.0354626 -0.0303463 0.0472095 
3467 2 0.111726 -0.0169122 0.0127919 0.11372 
3531 2 -0.0187641 -0.0676141 0.126707 0.14484 
2720 1 -0.0829611 0.0873409 -0.064766 0.136768 
1851 1 -0.0135038 0.00983348 -0.00369882 0.0171094 
732 1 -0.0266561 -0.0942528 0.0205889 0.10009 
4009 2 -0.0279592 0.133183 -0.0180742 0.137282 
3878 2 0.0397184 0.0396754 -0.0323347 0.064786 
3185 1 -0.179783 -0.0374943 0.0360281 0.187152 
110 1 -0.0533766 -0.0118562 0.038113 0.0666501 
2963 1 -0.0412908 -0.00264331 -0.0350615 0.0542331 
2608 1 -0.0433645 0.00821383 -0.0249031 0.0506765 
3301 1 0.0113026 0.00923434 0.0682358 0.0697793 
3759 2 -0.0309386 -0.0312849 -0.0238282 0.0500372 
4171 2 -0.0542878 0.0216823 0.00812387 0.0590194 
2118 1 0.00101001 0.0774143 -0.030544 0.0832282 
1742 1 0.0362521 -0.0478906 0.032171 0.0681374 
642 1 0.0311939 -0.16391 0.0549252 0.17566 
3366 1 -0.0401867 0.021158 0.103042 0.112606 
144 1 0.150005 0.163654 0.023853 0.223278 
681 1 0.0607556 -0.0429027 -0.110675 0.133345 
1666 1 0.0970058 -0.0612837 -0.0300455 0.118611 
183 1 -0.112982 -0.0874221 -0.0389508 0.14807 
694 1 -0.161614 0.0087705 0.0726672 0.177416 
444 1 -0.0416088 0.0565464 -0.126839 0.144972 
869 1 -0.0479868 -0.140628 0.125645 0.194591 
920 1 -0.0136266 -0.110366 -0.038357 0.117633 
53 1 0.0530149 -0.00426648 0.0411794 0.0672646 
1450 1 -0.212286 -0.0481105 -0.0704911 0.228799 
1579 1 0.108885 -0.105313 0.0689033 0.166416 
51 1 0.119309 0.031537 -0.00971178 0.123788 
4187 2 -0.115213 -0.0771006 -0.180488 0.227584 
1694 1 -0.00746543 -0.119601 0.146814 0.189511 
1590 1 0.0285046 0.0206019 -0.069309 0.0777219 
2005 1 -0.0058192 -0.0231333 0.129589 0.131766 
736 1 -0.0794201 -0.00119579 -0.0396383 0.0887704 
363 1 0.0807316 7.93783e-05 0.0271476 0.0851739 
230 1 0.0231983 0.0324422 0.136746 0.142443 
2538 1 0.0395817 -0.0257487 -0.0594547 0.0759247 
357 1 -0.0773979 0.00251444 -0.00808527 0.0778596 
3849 2 0.143547 -0.0375746 -0.0537577 0.157821 
4102 2 0.029442 -0.120627 0.0434838 0.131562 
1032 1 0.0740715 0.00281704 0.0338403 0.0814843 
78 1 -0.00236893 0.0537917 -0.0382041 0.0660205 
564 1 0.193703 -0.0251282 0.110615 0.224472 
797 1 0.155028 -0.0583491 -0.0536533 0.174118 
1476 1 0.18717 -0.0184254 -0.0296759 0.190402 
872 1 -0.108533 -0.0239348 -0.0903226 0.143215 
475 1 -0.0461471 -0.017659 0.0282675 0.0569249 
4119 2 0.189368 -0.1013 -0.0916341 0.233493 
576 1 -0.156682 0.024267 0.0575359 0.168667 
507 1 0.0650191 -0.0685084 0.0173842 0.096037 
248 1 0.0780611 -0.0485139 -0.0123047 0.0927283 
3597 2 -0.0707769 0.0593568 0.0805164 0.122538 
539 1 0.0157046 0.0041432 0.0776862 0.0793659 
63 1 0.0696996 0.0218652 0.0740727 0.104033 
57 1 -0.0701796 -0.012599 0.0108875 0.072128 
854 1 -0.0121362 0.053963 0.0143593 0.0571444 
668 1 0.114482 -0.11426 -0.122828 0.203097 
385 1 -0.104917 -0.222058 0.0331858 0.247828 
752 1 0.0340816 0.031025 -0.00836477 0.0468409 
3650 2 -0.0100819 0.132077 -0.0228052 0.13441 
3736 2 -0.0861798 -0.143542 -0.00816875 0.167624 
254 1 -0.110114 -0.141863 -0.00641597 0.179698 
3637 2 -0.0123343 0.00965817 0.102723 0.10391 
731 1 0.0181549 -0.000393418 -0.049624 0.0528422 
2304 1 0.109852 -0.096108 -0.0604443 0.15798 
610 1 -0.137357 -0.001866 -0.112187 0.17736 
292 1 -0.113299 0.0142274 0.0132518 0.114956 
313 1 -0.111736 0.00672405 0.0423884 0.119695 
2133 1 0.00876618 -0.135939 -0.00070909 0.136223 
646 1 -0.100212 -0.0201903 -0.0688417 0.123245 
271 1 0.00235509 0.0846266 0.0727261 0.111608 
584 1 -0.0463248 0.0819069 -0.100287 0.137522 
3649 2 -0.0986322 0.0391751 0.0375094 0.112561 
1148 1 -0.0344541 0.103987 0.134238 0.173264 