ITEM: TIMESTEP
50
ITEM: NUMBER OF ATOMS
4320
ITEM: BOX BOUNDS pp pp pp
0.0000000000000000e+00 1.9309999999999999e+01
0.0000000000000000e+00 1.9309999999999999e+01
0.0000000000000000e+00 9.6549999999999994e+00
ITEM: ATOMS id type c_displacement[1] c_displacement[2] c_displacement[3] c_displacement[4] 
4012 2 0.0361273 -0.0770275 -0.00440494 0.0851929 
2361 1 -0.0328027 -0.0864215 -0.0683172 0.114943 
79 1 -0.0528901 -0.078483 0.0207487 0.0968888 
781 1 0.059113 -0.0306141 0.0877195 0.110119 
461 1 0.00337112 0.0227284 -0.0339039 0.0409562 
3704 2 0.00298251 -0.0802318 0.0161808 0.0819015 
629 1 -0.0686733 0.0855246 0.0376258 0.115958 
1571 1 0.0102684 -0.0108033 -0.0306133 0.0340488 
58 1 0.105292 0.0719683 0.119304 0.17464 
2372 1 -0.053831 -0.0380662 -0.00874499 0.0665078 
372 1 0.00685774 -0.0466139 -0.0164991 0.049921 
3504 2 -0.0181879 -0.0822698 0.0400566 0.0932934 
4130 2 0.025661 -0.0227447 -0.0827735 0.089595 
1262 1 0.0570328 0.0927783 -0.0663378 0.12752 
907 1 -0.100716 -0.0643449 -0.14115 0.184952 
3659 2 0.00177854 0.17288 -0.100522 0.199988 
1298 1 0.0610658 0.0664185 -0.100974 0.135412 
1716 1 0.0327962 0.0813248 -0.0659783 0.109738 
1182 1 0.0383104 0.0192483 -0.0145073 0.045262 
683 1 -0.0197887 -0.0482146 0.0602808 0.079687 
1958 1 0.00372927 -0.0628786 0.0565332 0.0846383 
1554 1 0.0304645 -0.0770739 -0.0753178 0.111988 
1037 1 -0.0105962 -0.157906 0.021075 0.159658 
749 1 -0.10397 -0.081588 0.0491288 0.140997 
3628 2 0.0508069 0.0579525 0.00388013 0.0771679 
946 1 -0.0453398 -0.0103176 -0.0609406 0.0766545 
2232 1 -0.00632948 -0.0650545 -0.0942057 0.11466 
7 1 0.0413745 0.0127172 0.026136 0.0505635 
501 1 -0.00335783 0.0611983 -0.077586 0.0988741 
179 1 -0.0307822 -0.0310799 -0.0762592 0.0879146 
714 1 -0.0983142 -0.0411079 0.115942 0.157474 
4166 2 0.00705088 -0.0691901 0.019139 0.0721338 
276 1 -0.0298912 0.00767558 0.112583 0.116736 
767 1 -0.0568617 -0.0288789 0.0342656 0.0723973 
3890 2 -0.183454 -0.0494035 -0.119415 0.224402 
6 1 0.0142421 0.138946 -0.0318913 0.143268 
2086 1 -0.00919028 0.00690032 0.0452754 0.0467112 
224 1 0.0605867 -0.0414746 0.00512946 0.0736017 
3660 2 0.0267427 0.0158243 0.056444 0.0644321 
596 1 -0.0877528 -0.00895061 -0.0093567 0.0887029 
1214 1 0.0159029 -0.066782 -0.0797375 0.105218 
3686 2 0.0309642 0.0190271 0.0273839 0.0455048 
427 1 -0.08378 0.0750318 0.097978 0.149159 
350 1 0.0139136 0.0624988 -0.0308704 0.0710821 
85 1 -0.0287143 0.0214701 0.0364919 0.051158 
598 1 -0.0179293 -0.0547058 0.112689 0.126543 
3554 2 0.0325332 -0.0353457 -0.036845 0.0605416 
29 1 -0.0855781 0.0618899 0.019262 0.107355 
464 1 -0.00662886 0.0206651 -0.0847286 0.0874639 
3619 2 -0.0524687 0.0459692 0.0955453 0.118301 
12 1 -0.0132204 -0.144075 -0.0245001 0.14674 
364 1 -0.127896 0.00245614 -0.0922664 0.157723 
1849 1 -0.0714446 -0.106632 -0.0493292 0.137507 
3663 2 -0.165285 0.0565592 -0.0375933 0.178694 
3517 2 0.0268133 0.00747388 0.111544 0.114964 
25 1 0.18131 -0.00838961 -0.0534039 0.189198 
4163 2 0.0270413 -0.00545057 -0.0275994 0.0390214 
399 1 0.0329877 0.0219113 -0.0246387 0.0466407 
4265 2 -0.0584082 0.0683551 0.0462246 0.101097 
527 1 0.0313403 0.0133348 -0.0429564 0.0548205 
200 1 0.0890359 0.0396025 0.0856043 0.129707 
1951 1 0.130315 0.109682 0.0488862 0.177206 
644 1 0.0315324 -0.0465083 0.0582474 0.0809325 
193 1 0.0404378 0.0945917 0.0223521 0.105273 
550 1 0.0134956 -0.0334316 -0.0337126 0.0493593 
69 1 0.0238744 -0.00749385 -0.0121522 0.0278176 
842 1 -0.0805068 0.0393081 -0.0548689 0.105057 
578 1 -0.0157891 0.00114527 0.0178714 0.0238746 
172 1 -0.0215755 -0.0596697 0.0231602 0.0675453 
381 1 -0.01464 0.0177628 -0.0602093 0.0644594 
3524 2 0.0603801 -0.107508 0.140425 0.186877 
688 1 -0.0905414 0.103865 -0.0258557 0.140193 
3651 2 -0.0469021 0.0524703 0.0417102 0.0818088 
2367 1 0.045419 0.0116257 -0.0203804 0.0511214 
1244 1 -0.0930347 -0.0247684 0.00767255 0.0965805 
796 1 -0.0802859 0.105534 -0.0365779 0.137554 
691 1 0.0558304 -0.0135413 0.0182853 0.0602889 
421 1 0.0550552 0.0415998 0.0757347 0.102457 
597 1 -0.030868 0.0601117 -0.00538967 0.0677887 
3617 2 0.0432109 0.00076325 -0.0458513 0.0630088 
120 1 0.0825806 0.117866 0.0652533 0.158019 
769 1 -0.063809 -0.0150948 0.0543535 0.0851689 
2142 1 -0.011167 0.0369315 -0.032811 0.0506478 
3611 2 0.153999 0.0387328 0.152512 0.220172 
1915 1 -0.0174275 0.0563784 0.0431232 0.073088 
2140 1 0.00107482 -0.01323 0.107629 0.108444 
3828 2 0.116174 0.0371206 0.0542406 0.133478 
3204 1 0.00234215 0.0710292 0.0421048 0.0826041 
175 1 0.103709 0.041488 -0.0383264 0.118092 
2011 1 0.119839 0.0381922 -0.0332818 0.130107 
75 1 0.00592666 0.112509 -0.0362476 0.118352 
547 1 -0.0114525 -0.03495 -0.0939821 0.100922 
4316 2 -0.0718166 0.0466597 -0.0485062 0.0984256 
559 1 0.0363514 0.0469038 -0.0120332 0.0605491 
717 1 -0.0150564 0.0807873 -0.0489128 0.0956334 
242 1 0.00458702 -0.0381166 0.0729951 0.0824755 
3510 2 -0.0815194 0.0306895 0.101312 0.133609 
130 1 0.100878 -0.0326401 0.12896 0.166951 
143 1 -0.015183 0.0631554 -0.0731793 0.0978486 
202 1 -0.145177 -0.0795927 -0.0671037 0.178645 
182 1 -0.13006 0.0449417 -0.00230371 0.137625 
84 1 0.042658 -0.035376 -0.0341481 0.0650943 
3633 2 0.0162337 -0.0704086 0.0354162 0.0804687 
35 1 -0.154126 0.0206178 0.121824 0.197537 
3612 2 0.0281538 0.0418729 -0.0389214 0.0637248 
40 1 0.153919 0.0965694 0.0825299 0.199569 
4005 2 0.0597442 -0.0803825 0.0364646 0.106585 
718 1 -0.0780194 -0.00595952 -0.0558916 0.0961582 
134 1 -0.029895 -0.00663239 0.100231 0.104805 
511 1 -0.050046 -0.0544585 0.0183857 0.0762126 
757 1 0.0409741 0.15121 0.00412523 0.156717 
3555 2 -0.0684277 0.0673141 0.0417506 0.104674 
3481 2 -0.0291914 -0.010062 -0.0416401 0.051839 
135 1 0.0116638 -0.0447809 -0.0573638 0.073702 
369 1 0.0564625 -0.0379634 0.0938483 0.115917 
2148 1 -0.0957492 -0.0562072 0.0266734 0.114187 
3462 2 0.0493978 -0.0692352 -0.164926 0.185565 
1914 1 0.00274385 0.0565165 0.0136974 0.0582174 
3661 2 0.0849913 -0.124188 0.0146081 0.151194 
1871 1 0.0156437 0.0340663 -0.0461046 0.0594212 
320 1 -0.050168 -0.0302985 -0.044995 0.0738876 
582 1 -0.0166353 -0.106794 -0.0407025 0.115492 
766 1 -0.026588 0.0144587 0.00183848 0.0303209 
3552 2 0.00179267 -0.0353522 0.00392299 0.0356143 
2290 1 -0.0457399 0.0337508 0.0305559 0.0645362 
1794 1 0.00449343 0.0455831 0.0804751 0.0925972 
753 1 -0.0576558 0.0444142 0.0505002 0.0885837 
396 1 0.00236661 -0.0113059 0.138224 0.138706 
496 1 -0.00431464 0.006611 -0.0932687 0.0936022 
480 1 -0.0451912 -0.0581029 0.081857 0.110085 
253 1 0.0477096 -0.00486278 -0.0159062 0.0505258 
4033 2 -0.0147807 0.0250542 -0.0605281 0.0671554 
347 1 -0.0519469 0.025447 -0.0102366 0.0587437 
586 1 -0.0995526 0.0477325 -0.112779 0.157823 
3671 2 0.0574662 0.0169443 -0.0668345 0.089757 
37 1 0.0123442 -0.11429 -0.000380355 0.114955 
782 1 0.0299922 -0.125424 -0.0299073 0.132383 
481 1 0.0788015 -0.0173055 -0.0794309 0.113218 
392 1 -0.0380854 0.0458272 -0.0973199 0.114113 
333 1 0.0509227 -0.0434402 -0.0190198 0.0695839 
342 1 -0.0211908 -0.0337644 -0.0348419 0.0529438 
1179 1 -0.00492071 -0.0175112 -0.0619745 0.0645886 
517 1 0.00315437 -0.0875465 -0.0259084 0.0913542 
1824 1 0.0575974 -0.0500064 0.110108 0.133947 
34 1 0.065001 0.00843907 0.0356868 0.0746317 
398 1 -0.011468 -0.0486872 -0.0750035 0.0901526 
170 1 -0.0683365 -0.0657769 -0.0563864 0.110344 
235 1 0.0393005 -0.113599 0.07743 0.142985 
3852 2 -0.0282629 -0.00843644 -0.01247 0.0320228 
816 1 0.04229 -0.0263972 -0.0683867 0.0846286 
3931 2 -0.129852 -0.126725 0.0994682 0.206917 
274 1 -0.0252553 -0.0509383 -0.0153811 0.0588992 
30 1 -0.00148821 -0.0220642 -0.0355062 0.0418299 
2066 1 0.0736855 -0.0409375 0.133123 0.157566 
1082 1 -0.00474738 -0.0942511 0.0824588 0.125321 
1372 1 0.0062894 -0.0492488 0.101753 0.11322 
1265 1 0.086301 -0.0408743 -0.0871712 0.129296 
601 1 -0.00700678 0.0724738 0.0227469 0.0762822 
540 1 -0.00976423 -0.0273664 -0.000129032 0.0290565 
589 1 -0.0450818 0.146873 0.101106 0.18392 
958 1 0.121185 -0.0137006 0.00245072 0.121982 
504 1 -0.0832781 0.0481939 -0.0285189 0.100355 
1349 1 -0.0852505 0.0177466 -0.0642031 0.108188 
9 1 0.0185413 -0.119559 0.0261224 0.123776 
149 1 -0.00743078 0.0719278 -0.0153871 0.0739296 
163 1 0.021282 -0.136115 0.0353645 0.142235 
4247 2 0.0168705 -0.0667795 -0.0477727 0.0838233 
1584 1 0.163477 -0.0114993 -0.0899597 0.186949 
3570 2 -0.0316421 -0.0905589 -0.00581823 0.096104 
237 1 0.019148 0.0569638 0.0634279 0.0873763 
490 1 -0.00474003 -0.0721479 -0.028406 0.0776833 
50 1 -0.0419275 -0.0378412 0.0220789 0.0606411 
152 1 0.0687532 0.00445395 -0.0665253 0.0957729 
3652 2 -0.0367708 -0.0308667 0.00182017 0.0480433 
3823 2 0.0454956 0.0928286 -0.122213 0.160072 
902 1 0.0287157 0.0649907 -0.0169535 0.0730466 
3574 2 -0.0397067 0.0612111 -0.0597875 0.094329 
770 1 -0.0137568 -0.0677788 -0.0450323 0.0825295 
154 1 -0.0233817 -0.0435292 -0.0087469 0.0501797 
116 1 0.0940725 -0.0581284 0.0532211 0.122723 
710 1 -0.0891021 -0.15235 -0.0920557 0.199058 
1956 1 -0.0288849 0.0270272 -0.0313873 0.0504972 
1810 1 -0.11143 -0.0358372 0.0681582 0.135449 
2072 1 -0.0650073 -0.0345697 0.00608281 0.0738784 
1649 1 -0.0531299 0.0249318 -0.0728856 0.0935772 
186 1 -0.0518551 0.0425941 0.0761784 0.10152 
1063 1 -0.0685779 0.100509 -0.178264 0.215831 
432 1 -0.130759 0.0727915 -0.134959 0.20152 
2495 1 -0.0520017 -0.104798 0.0713638 0.137038 
3896 2 0.00281662 -0.0143438 -0.0745506 0.0759701 
4115 2 0.0256355 -0.0069098 -0.0258217 0.0370363 
913 1 0.0585874 -0.0506035 0.0251909 0.0814111 
1068 1 -0.0129726 0.013524 -0.0194488 0.0270082 
265 1 -0.0809253 -0.00286808 -0.0481378 0.0942039 
1287 1 0.0391545 0.109328 0.0208966 0.117993 
3799 2 0.070693 -0.0675711 -0.124752 0.158513 
554 1 0.0581265 -0.0784657 -0.0402646 0.105626 
1414 1 -0.0153566 0.0473046 -0.0700815 0.0859359 
213 1 0.00539383 -0.0106688 0.0321738 0.0343231 
341 1 -0.085891 -0.0417673 -0.0364579 0.10223 
3682 2 -0.0307781 0.0453975 -0.0554319 0.0779803 
754 1 -0.0781277 0.0608652 0.0138056 0.0999955 
112 1 -0.065104 0.0460298 0.00318139 0.079796 
1041 1 -0.0170274 -0.043656 0.028591 0.0548929 
119 1 0.0221578 0.0407859 0.0542989 0.0714341 
415 1 -0.0310723 0.03477 -0.0444027 0.0643897 
995 1 -0.0680063 0.0486981 0.0250325 0.0873097 
4128 2 0.00963116 -0.0357709 0.154319 0.158703 
8 1 0.0389372 0.0639957 0.00438515 0.0750385 
94 1 0.0267157 -0.0551177 -0.00871195 0.0618675 
48 1 0.0385974 0.0217789 0.0348833 0.0563997 
437 1 -0.017939 -0.0607463 -0.0511092 0.0813884 
3866 2 0.0633127 0.0284804 -0.0284237 0.075017 
2206 1 0.020196 0.000209671 -0.019876 0.0283369 
3490 2 -0.0991633 0.0162958 -0.0234066 0.103183 
3072 1 -0.0201606 -0.0730016 0.044324 0.0877513 
3002 1 0.0786027 0.116127 0.0431979 0.146731 
92 1 0.046472 0.0890847 0.107008 0.146787 
335 1 -0.0334233 0.0770438 -0.0425201 0.0941319 
2192 1 -0.000823623 -0.000981497 0.07135 0.0713615 
1186 1 0.0271861 -0.0121601 -0.00330943 0.029965 
1114 1 0.0563368 0.0115697 0.0298585 0.0648014 
1821 1 -0.0490151 -0.0691364 -0.0696932 0.109724 
1922 1 0.0402404 -0.0882102 0.0408233 0.105199 
451 1 -0.108705 -0.0430369 -0.00555213 0.117046 
3960 2 -0.00144816 -0.0385442 0.0294279 0.0485155 
100 1 -0.0292164 0.0438675 -0.0892254 0.10363 
1180 1 0.0169094 -0.0490822 -0.0885884 0.102679 
165 1 0.0669053 -0.0337382 -2.93612e-05 0.0749306 
388 1 -0.0740644 -0.0492138 -0.053015 0.103528 
3742 2 0.0778775 -0.0550078 0.0190457 0.0972291 
323 1 -0.128367 0.146701 -0.0506687 0.201411 
288 1 -0.0726113 0.0167937 0.000605086 0.0745305 
3942 2 -0.0756894 0.0671795 0.100077 0.142328 
66 1 0.0666568 0.0286956 0.0594291 0.0937998 
340 1 0.00967358 0.0256204 -0.0333297 0.0431376 
138 1 -0.0182838 -0.0141899 0.0167187 0.0285511 
879 1 -0.00328168 -0.0235988 -0.07435 0.0780743 
3808 2 0.0718301 0.0694527 -0.0187589 0.101662 
834 1 0.00770266 0.0231934 0.0161831 0.0293114 
18 1 -0.0752522 -0.0627158 -0.0952199 0.136613 
3679 2 0.0460331 -0.0362357 -0.0349501 0.0682172 
52 1 0.0541153 -0.0543529 -0.00529985 0.0768817 
407 1 0.000317536 0.00269596 -0.0686359 0.0686896 
360 1 0.0634401 -0.050569 -0.0921391 0.122766 
2885 1 -0.102376 -0.0478169 -0.0175134 0.114342 
3526 2 -0.0183601 -0.211762 -0.0617255 0.221337 
310 1 -0.0772745 -0.0412254 -0.00911662 0.0880568 
326 1 0.113245 -0.00981153 0.0643175 0.130604 
227 1 -0.0216583 -0.0406756 -0.0308559 0.0554587 
2068 1 -0.127509 -0.0307263 -0.102248 0.166305 
456 1 0.0403378 -0.0119586 0.0380197 0.0567067 
279 1 -0.0180497 0.0269298 0.104184 0.109112 
305 1 -0.0239026 0.0372201 -0.0519795 0.0682535 
49 1 0.000505273 0.096367 0.0593213 0.113163 
3512 2 0.012599 -0.102795 0.0417417 0.11166 
11 1 -0.0735331 -0.175324 0.0284905 0.192243 
189 1 -0.0653357 0.105688 0.0632719 0.139434 
2271 1 -0.115259 -0.0378665 -0.0149483 0.122237 
319 1 -0.0931934 -0.0562628 -0.00235655 0.108886 
3566 2 0.0188184 0.0653557 -0.0624454 0.0923305 
71 1 0.0215236 0.00793088 0.039229 0.0454432 
1560 1 -0.0237822 -0.0269776 0.0503102 0.0618425 
190 1 -0.0339647 -0.0161132 0.0840888 0.0921095 
123 1 0.0750488 0.00942854 0.0831347 0.112395 
27 1 -0.0396421 -0.00356966 -0.0318804 0.0509961 
162 1 -0.00540877 0.013211 -0.0992722 0.100293 
255 1 -0.100904 0.00757892 -0.0288135 0.105211 
304 1 -0.0835886 -0.00607775 -0.0574252 0.101596 
321 1 0.00857136 -0.0641813 0.145883 0.159608 
682 1 -0.0679493 0.030848 0.00605292 0.0748688 
3469 2 0.0508666 0.0382536 -0.0861493 0.10711 
3539 2 0.0255974 0.0301441 0.102116 0.109506 
128 1 0.0585353 -0.0535798 -0.0729301 0.107777 
3562 2 0.106613 0.0252341 0.102547 0.150063 
560 1 -0.140802 -0.0545673 -0.0175059 0.152018 
212 1 -0.0524776 0.0568354 -0.0411217 0.087608 
355 1 0.0228358 0.061435 0.0998028 0.1194 
156 1 0.0327714 0.0775163 0.0637731 0.105592 
3620 2 0.0232391 -0.0638021 -0.0120152 0.0689574 
1823 1 0.186646 -0.129143 -0.0912549 0.244626 
1805 1 -0.0714161 0.0661093 0.0924736 0.134246 
2599 1 -0.0659578 0.0174556 0.0520144 0.085794 
327 1 0.0604739 0.00525651 0.0191447 0.0636494 
137 1 0.0653734 0.0189708 0.0365234 0.0772498 
2334 1 -0.00631214 0.0392008 0.0428119 0.0583901 
3698 2 0.0354197 -0.0700319 0.00826766 0.0789137 
555 1 -0.0226928 -0.0506241 -0.0533891 0.0769945 
4178 2 0.0126808 -0.0860599 0.0527359 0.101726 
290 1 -0.0105835 0.0400249 -0.0115475 0.0429808 
284 1 0.0105598 0.018059 -0.0498028 0.0540181 
3543 2 -0.0300547 -0.0212878 0.0361167 0.0515837 
366 1 0.0332172 -0.0382589 0.0645897 0.0820911 
55 1 -0.0107742 0.0454871 -0.0136132 0.0486876 
273 1 -0.0278821 -0.0506424 -0.0326233 0.0663803 
3468 2 0.0810509 0.000776562 0.0611408 0.101529 
316 1 0.1224 0.00104935 0.107567 0.162953 
81 1 -0.061509 -0.0032508 0.0108078 0.0625359 
322 1 0.0387805 -0.0417008 0.0256818 0.0624695 
239 1 -0.0103246 0.0163475 -0.0604357 0.0634533 
734 1 -0.0218469 -0.0733029 -0.0529503 0.0930286 
384 1 0.0873459 -0.0688598 -0.0794144 0.136666 
3476 2 -6.77622e-05 0.0990707 0.0105227 0.099628 
311 1 -0.0303722 -0.0576626 -0.078855 0.102301 
3471 2 0.0174057 0.0328135 0.0451371 0.0584555 
1938 1 0.0508535 -0.0665136 0.000266086 0.083727 
139 1 0.153923 -0.0362034 -0.0107433 0.158488 
727 1 0.0779768 -0.0617924 0.0447988 0.109113 
1885 1 -0.00437845 0.0323285 -0.0670714 0.0745846 
2184 1 0.143705 0.155954 -0.0890022 0.229987 
2494 1 -0.162299 -0.0480444 -0.151512 0.227168 
2091 1 -0.0277567 0.00649433 -0.0669139 0.072733 
281 1 0.031708 0.106057 0.115865 0.160244 
863 1 0.0123605 0.0785973 -0.0573832 0.0980976 
176 1 -0.071373 0.0605404 -0.0516033 0.106874 
3710 2 -0.00357407 0.0693485 -0.049396 0.0852171 
3572 2 -0.00633388 -0.102828 -0.081359 0.131274 
4197 2 -0.0739074 0.0677479 -0.0584316 0.116045 
343 1 -0.0332969 -0.0418788 -0.114849 0.126699 
282 1 -0.041979 -0.0359231 -0.0312746 0.0634886 
1038 1 -0.00865955 0.0788139 0.0438277 0.0905952 
408 1 0.179813 0.0380453 -0.0161816 0.184505 
412 1 0.139571 -0.0521746 -0.0149353 0.149751 
820 1 0.12283 0.0166671 0.0605274 0.137944 
585 1 -0.0844658 -0.0364279 -0.091334 0.129628 
3609 2 0.0653754 -0.0974708 0.0185518 0.118822 
719 1 -0.0165585 0.0655072 -0.0265336 0.0725907 
608 1 0.0194612 0.0391089 0.0268747 0.0512883 
106 1 -0.00521403 0.0581238 0.0588291 0.0828639 
1047 1 -0.121606 -0.0379376 -0.0285032 0.130536 
3573 2 0.016178 0.0381366 -0.0738389 0.0846659 
751 1 -0.0142248 -0.0172579 -0.0741224 0.0774229 
259 1 0.071622 -0.0440101 0.00850275 0.084492 
245 1 -0.0806761 -0.0362448 -0.0313101 0.0938224 
613 1 -0.052716 -0.0395927 0.123882 0.140333 
4296 2 -0.0268198 0.0507963 0.0280873 0.0639411 
272 1 -0.109333 -0.115063 -0.0263692 0.160899 
4239 2 -0.0613219 -0.109764 -0.0697937 0.143805 
88 1 0.081543 0.099618 0.0931196 0.158884 
4 1 0.0878215 -0.00795675 -0.0735318 0.114817 
361 1 0.088442 0.105892 -0.145624 0.200602 
358 1 -0.0533266 -0.0208467 -0.024047 0.0621013 
194 1 0.013348 0.0404439 -0.0872919 0.0971275 
2373 1 0.0200529 -0.00304208 -0.106975 0.108881 
1982 1 0.0281302 0.00491667 0.0336771 0.0441546 
3953 2 0.00273384 0.0268316 0.0814958 0.0858427 
414 1 0.0219283 0.0215933 -0.0664674 0.0732464 
3186 1 0.0937655 -0.0845747 0.00646142 0.126438 
177 1 0.0594339 -0.0435824 0.0493956 0.0887228 
1962 1 -0.0369034 0.0592348 0.104603 0.125748 
706 1 0.0165164 0.00891591 -0.0395117 0.0437431 
1544 1 -0.00195454 -0.0937313 0.05407 0.108226 
4160 2 -0.0339661 0.0288089 -0.0259502 0.0515467 
19 1 -0.0503224 0.0120977 -0.100045 0.11264 
3624 2 -0.00990733 -0.0135571 -0.0672613 0.0693255 
115 1 0.0977061 -0.0677799 -0.0429588 0.126436 
1102 1 -0.0715853 -0.023478 0.0161425 0.0770471 
2048 1 0.0685733 -0.0228701 -0.0351641 0.0803857 
649 1 0.0432907 0.114594 -0.0416994 0.129401 
113 1 0.0372668 -0.0260105 -0.00225005 0.0455019 
1150 1 0.0110233 -0.00191793 0.056121 0.0572255 
620 1 -0.0208091 -0.0289375 -0.012171 0.0376634 
739 1 -0.0816469 -0.0336122 0.00620306 0.0885126 
2412 1 0.0147936 0.0444963 -0.0123464 0.0484892 
3746 2 0.0913286 0.0324417 -0.161371 0.188239 
1225 1 0.00124321 0.0592405 0.0944364 0.111486 
241 1 0.10219 0.00919946 0.00131815 0.102611 
83 1 0.0270331 0.00874409 -0.0197635 0.0346099 
1006 1 0.0383696 0.00516682 -0.00390865 0.0389127 
4046 2 -0.0614845 -0.09879 -0.0378209 0.122353 
96 1 0.00686049 -0.121916 0.0125797 0.122755 
411 1 0.079722 0.0587505 0.0818595 0.128484 
2454 1 -0.0705092 0.0154713 0.0160855 0.073957 
404 1 -0.0830121 0.0696641 0.0744951 0.131505 
226 1 0.0495533 -0.0167838 0.0735678 0.0902743 
534 1 0.0431339 -0.0263337 0.118255 0.128601 
3538 2 -0.013362 0.0480956 -0.0438809 0.0664625 
761 1 0.0670288 -0.0282978 0.0497511 0.0881408 
246 1 0.077251 -0.0668082 0.0253574 0.105233 
2229 1 -0.00429946 -0.122789 0.00636089 0.123029 
146 1 -0.00332657 -0.0347695 -0.0575074 0.0672836 
3608 2 0.0628991 -0.00558775 0.00576997 0.0634099 
503 1 -0.0290741 -0.000512745 0.0368928 0.0469749 
505 1 0.113691 -0.0403138 0.0112549 0.121151 
1430 1 -0.0841606 -0.042962 -0.0291835 0.098896 
97 1 -0.0387438 0.0423061 -0.0875914 0.104705 
1723 1 0.0356876 0.00660304 -0.0878754 0.0950752 
3561 2 0.0566822 0.138309 -0.0401137 0.154762 
20 1 -0.0680677 -0.0649756 -0.00285832 0.0941447 
263 1 -0.0585628 0.140856 0.00110175 0.152549 
817 1 0.0958265 -0.0669892 0.0183392 0.118349 
1034 1 0.0236515 0.0238036 0.0171994 0.0377071 
353 1 0.0410657 -0.00847773 0.140229 0.146364 
1260 1 0.054171 0.109725 -0.0281775 0.125571 
998 1 0.0313779 0.0738431 -0.0568324 0.0983224 
1932 1 0.104572 -0.146315 -0.0286148 0.182105 
36 1 0.0989346 -0.130686 -0.0129243 0.16442 
38 1 0.00455242 0.00667365 -0.0647706 0.0652725 
3130 1 -0.035216 -0.0130024 -0.0524108 0.064468 
1973 1 0.084819 -0.0127734 0.140582 0.164684 
307 1 0.0195119 -0.0516559 -0.0525081 0.0761981 
2714 1 0.0834173 0.0366601 0.0199924 0.0932851 
28 1 0.0628961 0.0262979 0.00613752 0.0684483 
1937 1 0.00080193 0.0357272 -0.0478848 0.0597497 
562 1 -0.0773608 -0.11433 0.00470651 0.138124 
3011 1 -0.0542938 -0.00294128 0.000102226 0.0543735 
410 1 0.0855304 -0.0526076 0.0344765 0.106168 
693 1 0.0701106 0.101279 0.116319 0.16942 
367 1 -0.0194929 0.00397276 0.00204475 0.0199984 
318 1 0.0620791 0.0351142 -0.070824 0.100513 
735 1 0.109325 -0.0205411 0.0195415 0.112941 
600 1 -0.0187816 0.062954 0.0292853 0.0719277 
3590 2 -0.0357273 0.0589696 -0.0163954 0.0708708 
3636 2 0.0472604 -0.0965964 0.0543237 0.12048 
26 1 -0.103177 0.0661806 0.06228 0.137493 
1199 1 0.0354484 0.0231278 -0.069673 0.0815219 
614 1 -0.0164638 -0.0376646 -0.0225367 0.0468783 
459 1 0.0199063 -0.081381 -0.0605719 0.103383 
3645 2 0.072662 0.110271 0.0556139 0.143292 
574 1 0.0476276 0.00504211 0.0382997 0.0613244 
780 1 0.108455 -0.00613423 -0.00327044 0.108677 
161 1 -0.0854189 0.00315222 0.00568334 0.0856657 
309 1 0.117339 0.0744299 0.0113449 0.139416 
365 1 0.0215455 -0.14373 -0.0545771 0.155245 
191 1 -0.0650498 0.0763193 0.010773 0.100857 
1766 1 -0.0338753 0.051177 -0.0427433 0.0747904 
2775 1 0.0416358 -0.0734394 -0.0673638 0.108004 
1030 1 0.0971467 -0.0684517 0.0199776 0.120508 
1505 1 0.123756 0.143012 0.11576 0.221739 
3872 2 -0.00650685 0.0320535 -0.0051017 0.0331027 
580 1 -0.0383212 -0.0406121 -0.00460039 0.0560269 
2054 1 -0.0997054 -0.0718478 -0.0570426 0.135489 
2064 1 0.0992363 0.00841752 -0.0593766 0.115949 
529 1 -0.0104324 0.0479159 -0.0851366 0.0982498 
402 1 -0.0178497 0.0524357 0.0217589 0.0595111 
124 1 -0.0105608 -0.0954355 0.0460315 0.106482 
744 1 0.101465 0.00419277 0.0241065 0.104374 
185 1 0.0793026 -0.0381594 0.0957499 0.13005 
315 1 -0.031214 -0.0457324 -0.0468338 0.0725201 
655 1 -0.0320391 -0.0338596 0.132061 0.140046 
765 1 -0.0170451 0.0727431 0.0246188 0.078665 
140 1 0.0308432 0.0812774 -0.0836714 0.120657 
59 1 -0.0438633 -0.010144 0.0499505 0.0672454 
54 1 0.00467749 0.0169299 0.01712 0.0245274 
3506 2 -0.0163107 0.0960767 -0.0781653 0.124926 
666 1 -0.0413867 -0.122717 0.0710825 0.147733 
43 1 0.070879 0.100917 0.0760757 0.144899 
334 1 -0.0182143 -0.00936466 0.00981217 0.0227098 
267 1 0.136598 0.0359016 -0.0410248 0.147074 
99 1 0.0626813 0.0867264 0.0842174 0.136173 
1189 1 -0.0882083 -0.0427105 -0.146547 0.176298 
201 1 -0.014952 -0.0898721 -0.0542762 0.106049 
380 1 0.0235187 0.121345 -0.156676 0.199562 
1777 1 0.0163994 -0.0169352 -0.0461248 0.0518 
2597 1 0.241413 -0.0288691 -0.0279629 0.244735 
2484 1 0.122668 -0.052452 -0.0887589 0.16024 
308 1 -0.0307695 -0.0174127 -0.0377767 0.0517401 
3918 2 -0.04094 0.0816665 0.0445917 0.101656 
89 1 -0.0787403 0.0601605 -0.0319166 0.104106 
300 1 -0.00935492 0.0125773 0.00116611 0.0157182 
3582 2 0.0223274 0.0348696 0.0123947 0.0432207 
712 1 -0.0830415 0.0530864 0.0575739 0.114144 
3836 2 -0.0150509 0.0452067 -0.0670805 0.0822798 
268 1 0.00670683 -0.0124321 6.47246e-05 0.014126 
788 1 -0.0131013 0.0813005 -0.0994097 0.129088 
4091 2 0.000634512 0.146841 -0.00350498 0.146884 
371 1 0.0384627 0.0744894 0.0980339 0.128991 
3505 2 0.0305328 -0.0195586 0.0669919 0.0761755 
266 1 0.0792743 -0.0703024 -0.0568398 0.12024 
3571 2 -0.0291552 -0.00994724 0.0602846 0.0676994 
637 1 -0.00627097 -0.000796526 -0.0782574 0.0785123 
157 1 -0.0312924 0.0002334 0.0575268 0.0654874 
257 1 0.0299375 0.0261889 0.0132582 0.0419273 
571 1 -0.0371546 0.0317013 -0.0326712 0.0587609 
665 1 -0.136552 -0.0047407 0.161137 0.211267 
448 1 -0.0942297 -0.0649828 0.0274502 0.117709 
827 1 0.0937097 0.10001 -0.000291673 0.137053 
3475 2 0.0351688 0.0107205 0.0445778 0.0577836 
73 1 -0.028615 0.0905949 0.000277733 0.095007 
373 1 0.0866958 -0.0220337 0.0838669 0.122618 
247 1 0.020107 -0.0314769 -0.0480345 0.0608473 
107 1 0.0613742 0.0241144 -0.00991011 0.0666821 
675 1 -0.0400311 0.0718708 -0.105349 0.133665 
434 1 -0.0164762 0.062008 0.0216316 0.0677081 
159 1 -0.0635076 0.0413471 -0.0165128 0.0775594 
32 1 0.0607011 0.0879341 0.0104782 0.107363 
3579 2 0.0574307 -0.0692534 -0.0546806 0.105282 
394 1 -0.0418286 0.0153237 0.052098 0.0685467 
260 1 -0.0414041 0.0447185 0.0135956 0.0624411 
3972 2 -0.0559604 0.0331349 0.096349 0.116244 
1801 1 -0.0664657 0.0254573 0.0684152 0.0987239 
2122 1 -0.0266407 0.00361727 0.11587 0.118948 
1966 1 -0.00112747 -0.0538024 -0.0804313 0.0967738 
291 1 -0.00837378 0.0168714 0.0248756 0.0312019 
2047 1 0.0765221 0.0179354 0.0645758 0.101722 
1899 1 0.00748363 0.0841168 0.00785905 0.0848139 
622 1 -0.0564805 0.0532524 0.00568005 0.077834 
1993 1 -0.0225315 -0.00407806 -0.015708 0.0277676 
62 1 0.0302081 0.0701437 0.0483441 0.0903871 
2187 1 -0.0275838 -0.0128583 -0.104758 0.109089 
4318 2 0.0626102 -0.0196176 -0.00345675 0.0657027 
44 1 -0.0191203 -0.0317302 0.0751247 0.0837623 
824 1 0.0179247 -0.00978181 0.0491738 0.0532451 
1282 1 -0.0125697 0.0100984 0.106845 0.108054 
3626 2 0.086861 0.0670123 -0.0221546 0.111921 
819 1 0.0370902 0.0484517 0.0848911 0.104545 
773 1 -0.111978 -0.119406 0.0356786 0.16754 
270 1 0.00241678 -0.0640572 0.00549042 0.0643375 
14 1 -0.0801813 -0.00378725 -0.0459535 0.0924938 
3540 2 0.0542161 -0.0128944 -0.0156439 0.0578825 
997 1 0.089869 -0.0591557 -0.0231289 0.110049 
4275 2 -0.0286066 -0.0715101 -0.1065 0.131432 
164 1 0.0577476 0.0605328 0.152582 0.174012 
234 1 -0.00268043 -0.0523527 0.0733897 0.0901889 
1125 1 -0.00965751 0.0409144 -0.0716182 0.0830447 
3985 2 -0.0747005 -0.00924607 0.0813408 0.110824 
328 1 0.031823 0.0138847 -0.0458364 0.0575018 
3474 2 0.0054095 0.00843073 -0.0407328 0.0419464 
543 1 -0.0821322 -0.00336463 -0.0124926 0.0831449 
293 1 0.0959777 -0.0556981 0.0550349 0.123866 
3458 2 0.0741802 -0.0503797 0.0800116 0.120178 
390 1 -0.0140711 -0.0370857 -0.0296846 0.0495431 
3706 2 0.105025 -0.148582 -0.0689167 0.194567 
2169 1 0.0812521 0.0958146 -0.00893951 0.125945 
1786 1 -0.00853057 0.0167505 -0.0833006 0.0853952 
1478 1 -0.00368264 0.00838572 0.146255 0.146541 
87 1 0.0175901 -0.0176843 -0.0309097 0.0397185 
4090 2 -0.00821364 -0.0505903 0.0410886 0.0656895 
142 1 -0.012432 0.0295996 0.0486855 0.0583178 
1650 1 -0.0791998 -0.0672962 -0.0855217 0.134593 
153 1 0.0125329 0.0349032 0.00958878 0.0383047 
374 1 0.0646565 -0.0145425 -0.0401399 0.0774801 
602 1 0.0113068 -0.071909 -0.0567887 0.0923239 
1277 1 -0.0591813 0.0171367 0.0221243 0.0654643 
76 1 -0.00840387 -0.0522187 0.095367 0.109052 
1370 1 0.0602509 -0.0298269 0.0999189 0.120431 
221 1 -0.0126087 0.0712753 -0.0347251 0.0802806 
604 1 -0.0210496 0.0597186 0.101605 0.119721 
1161 1 -0.0744412 -0.0406206 0.00320534 0.0848634 
1718 1 -0.13196 0.025217 -0.122095 0.18154 
178 1 0.0118168 -0.189926 -0.0121098 0.190679 
295 1 -0.112881 -0.057366 0.0196912 0.128143 
1472 1 -0.0751772 -0.0382855 0.0202703 0.0867656 
4159 2 -0.00899847 -0.0381121 -0.0319977 0.0505703 
3467 2 0.110464 -0.0147666 0.0194898 0.113138 
3531 2 -0.00507032 -0.0595618 0.12215 0.135992 
2720 1 -0.0901187 0.0831771 -0.0607093 0.136841 
1851 1 -0.00868502 0.0133887 -0.00309243 0.0162558 
732 1 -0.0358914 -0.096006 0.0183016 0.104117 
4009 2 -0.0133203 0.126435 -0.0182451 0.128437 
3878 2 0.0331968 0.0335929 -0.0303 0.0561124 
3185 1 -0.167308 -0.0415965 0.0347162 0.175862 
110 1 -0.0501454 -0.0180995 0.036623 0.0646792 
2963 1 -0.0379376 -0.00673101 -0.0343548 0.0516219 
2608 1 -0.0443569 0.0101915 -0.024845 0.0518525 
3301 1 0.00571003 0.00625859 0.0533533 0.0540218 
3759 2 -0.0291142 -0.0205532 -0.0210372 0.041384 
4171 2 -0.0439663 0.0215705 0.0032519 0.0490805 
2118 1 0.00130346 0.0740025 -0.0335726 0.0812723 
1742 1 0.0457954 -0.0598022 0.0281352 0.0804059 
642 1 0.0314799 -0.155605 0.0633393 0.170927 
3366 1 -0.0417968 0.0175153 0.0996069 0.109432 
144 1 0.149611 0.155093 0.0226976 0.216686 
681 1 0.05923 -0.0462778 -0.102988 0.1275 
1666 1 0.102198 -0.0577123 -0.0305304 0.121273 
183 1 -0.112246 -0.0803068 -0.0368468 0.142849 
694 1 -0.157532 0.0106639 0.0740698 0.174403 
444 1 -0.0359902 0.0589297 -0.11912 0.137687 
869 1 -0.0417063 -0.133475 0.117244 0.182486 
920 1 -0.0080702 -0.103316 -0.0433293 0.112324 
53 1 0.0473924 -0.0015322 0.0379433 0.0607296 
1450 1 -0.19871 -0.0515065 -0.0600726 0.213886 
1579 1 0.116089 -0.0999585 0.0696188 0.168271 
51 1 0.112171 0.0346726 0.00277066 0.11744 
4187 2 -0.111026 -0.0721411 -0.182832 0.22574 
1694 1 -0.0085784 -0.114032 0.127241 0.171077 
1590 1 0.0266437 0.0228432 -0.0649471 0.0738229 
2005 1 -0.0144003 -0.0137666 0.129241 0.130767 
736 1 -0.0693453 -0.0043902 -0.0467071 0.0837233 
363 1 0.0694771 -0.000669767 0.0319807 0.0764872 
230 1 0.0246144 0.0336565 0.150399 0.156072 
2538 1 0.027717 -0.0137939 -0.064778 0.0717962 
357 1 -0.0808497 0.00380643 0.00116979 0.0809477 
3849 2 0.135265 -0.0328271 -0.0386013 0.144445 
4102 2 0.0403263 -0.117415 0.0438206 0.131654 
1032 1 0.0741549 -0.00542895 0.0275195 0.0792827 
78 1 -0.00456747 0.0478886 -0.0368281 0.0605846 
564 1 0.171314 -0.0142251 0.114193 0.206375 
797 1 0.153196 -0.0564062 -0.0557362 0.172503 
1476 1 0.174131 -0.0247502 -0.0290695 0.178267 
872 1 -0.103573 -0.0303032 -0.0846773 0.137171 
475 1 -0.0469454 -0.00510596 0.030626 0.0562841 
4119 2 0.168111 -0.0948454 -0.0853757 0.211059 
576 1 -0.154023 0.0300768 0.0598266 0.16795 
507 1 0.062642 -0.0580775 0.019668 0.0876575 
248 1 0.0812022 -0.0506294 -0.0119943 0.0964417 
3597 2 -0.0673902 0.0535963 0.0700759 0.111016 
539 1 0.0127172 0.00941378 0.0808568 0.0823903 
63 1 0.0691654 0.0223502 0.0633744 0.0964349 
57 1 -0.0779839 -0.00697073 0.00781884 0.0786842 
854 1 -0.00658719 0.0533645 0.0137922 0.0555102 
668 1 0.117052 -0.105324 -0.124859 0.200958 
385 1 -0.106336 -0.209003 0.024737 0.2358 
752 1 0.0360444 0.0216686 -0.00826698 0.042861 
3650 2 -0.00433256 0.121202 -0.012953 0.121969 
3736 2 -0.0850305 -0.133867 -0.0190586 0.15973 
254 1 -0.0982188 -0.132874 -0.0130737 0.165751 
3637 2 -0.0134132 0.0108046 0.10173 0.103178 
731 1 0.0268956 0.00667708 -0.0559252 0.0624146 
2304 1 0.110573 -0.0840764 -0.0662054 0.153878 
610 1 -0.121878 -0.00746983 -0.110473 0.164664 
292 1 -0.1016 0.0148393 0.013911 0.103616 
313 1 -0.105456 0.0033846 0.04339 0.114084 
2133 1 0.00535952 -0.130949 0.00691453 0.131241 
646 1 -0.0954923 -0.0164261 -0.0616759 0.114859 
271 1 -0.00501003 0.0778064 0.0748183 0.108059 
584 1 -0.0426394 0.0718564 -0.0989241 0.129489 
3649 2 -0.0961929 0.0376321 0.0359451 0.109368 