ITEM: TIMESTEP
64
ITEM: NUMBER OF ATOMS
4320
ITEM: BOX BOUNDS pp pp pp
0.0000000000000000e+00 1.9309999999999999e+01
0.0000000000000000e+00 1.9309999999999999e+01
0.0000000000000000e+00 9.6549999999999994e+00
ITEM: ATOMS id type c_displacement[1] c_displacement[2] c_displacement[3] c_displacement[4] 
4012 2 0.0443961 -0.0741134 -0.0442326 0.0970584 
2361 1 -0.0381265 -0.108579 -0.0975485 0.15086 
79 1 -0.0110781 -0.0702431 -0.00346235 0.0711955 
781 1 0.0588488 -0.00951306 0.134898 0.147482 
461 1 0.0112089 0.0555956 0.00100016 0.0567231 
3704 2 0.0117272 -0.0980774 0.0157419 0.100023 
629 1 -0.0554379 0.107388 0.0392141 0.127056 
1571 1 0.0186719 -0.0312553 -0.0366329 0.0516479 
58 1 0.0861867 0.118547 0.0812661 0.167588 
2372 1 -0.0581276 -0.0324351 -0.0127163 0.0677684 
372 1 0.0290089 -0.0799535 -0.012763 0.0860057 
3504 2 -0.0371183 -0.0854047 0.0459509 0.103842 
4130 2 0.0585304 -0.0225682 -0.101682 0.119475 
1262 1 0.060418 0.0717419 -0.0530626 0.107763 
907 1 -0.115049 -0.0619527 -0.140374 0.191779 
3659 2 -0.0114184 0.143246 -0.0996159 0.174852 
1298 1 0.0355238 0.0823305 -0.107272 0.139812 
1716 1 0.0545868 0.0600572 -0.0730946 0.109222 
1182 1 0.0454261 0.0286817 -0.0389918 0.0663817 
683 1 -0.0171848 -0.0599485 0.0496522 0.0797151 
1958 1 -0.0244328 -0.0477643 0.0381806 0.0658494 
1554 1 0.0453473 -0.0884877 -0.0822745 0.129056 
1037 1 0.00571302 -0.132807 0.0192021 0.134309 
749 1 -0.0888877 -0.111497 0.0322275 0.146189 
3628 2 0.04396 0.0636939 -0.0136986 0.0785942 
946 1 -0.0738462 -0.0271685 -0.0362343 0.0866275 
2232 1 -0.0432308 -0.125644 -0.095849 0.163836 
7 1 0.0310267 -0.0197629 0.0398748 0.0542515 
501 1 -0.0117033 0.020241 -0.0547873 0.0595677 
179 1 -0.039159 -0.0260531 -0.0197449 0.0510103 
714 1 -0.122576 -0.0181774 0.0937459 0.155382 
4166 2 -0.00539611 -0.08179 0.0802357 0.114702 
276 1 -0.0314851 -0.0385023 0.110729 0.121386 
767 1 -0.0294374 -0.0300596 0.0194695 0.0463594 
3890 2 -0.187691 -0.0483511 -0.0985713 0.217445 
6 1 0.0222257 0.170633 -0.0227295 0.173569 
2086 1 0.0233811 0.0161658 0.0356753 0.0456151 
224 1 0.111735 -0.0568531 0.00783344 0.125612 
3660 2 0.00749574 -0.0132519 0.0804021 0.0818309 
596 1 -0.092204 -0.00798677 -0.0102943 0.09312 
1214 1 0.0445036 -0.0639269 -0.0924449 0.120885 
3686 2 0.00595956 0.00908518 0.0414936 0.0428926 
427 1 -0.113922 0.0645593 0.0948326 0.161677 
350 1 0.0192714 0.0694402 -0.0705913 0.100878 
85 1 -0.031259 0.0521808 0.0723175 0.0944975 
598 1 0.0169185 -0.0939468 0.0950228 0.134691 
3554 2 0.0622657 -0.036303 -0.0407079 0.0827772 
29 1 -0.155085 0.0635147 -0.0178178 0.168532 
464 1 0.0277857 0.000486063 -0.12684 0.129848 
3619 2 -0.0724497 0.0427441 0.117576 0.144569 
12 1 -0.0510958 -0.0766242 -0.0713015 0.116473 
364 1 -0.146356 -0.0194583 -0.0946172 0.17536 
1849 1 -0.0811126 -0.105667 -0.0850472 0.158044 
3663 2 -0.187577 0.0618621 -0.0161035 0.19817 
3517 2 0.0172839 0.00845185 0.131357 0.132758 
25 1 0.21747 0.017159 -0.0683104 0.228591 
4163 2 0.0269303 -0.0302896 -0.0256424 0.0479607 
399 1 0.0554421 0.0332304 -0.0281805 0.070514 
4265 2 -0.0590972 0.0722818 0.0834966 0.125255 
527 1 0.0125247 0.0667476 -0.0471861 0.0826961 
200 1 0.0743916 0.0430976 0.114947 0.143542 
1951 1 0.134323 0.105875 0.0305135 0.173734 
644 1 0.0287166 -0.0402813 0.0529136 0.0724367 
193 1 0.0508246 0.0897383 0.0587264 0.11868 
550 1 0.0342284 -0.0253402 -0.0249202 0.0493429 
69 1 0.0239967 -0.0282887 -0.0223631 0.0433152 
842 1 -0.0409895 0.0381328 -0.0380434 0.0676871 
578 1 0.0115779 -0.0298601 0.0160515 0.0358235 
172 1 -0.036845 -0.0369979 0.0300192 0.0602292 
381 1 -0.0282375 -0.00791712 -0.00958917 0.0308543 
3524 2 0.0435535 -0.0695705 0.110735 0.137838 
688 1 -0.0554121 0.110905 -0.0104153 0.124414 
3651 2 -0.0595776 0.0490197 0.0715422 0.105217 
2367 1 0.0377397 0.00134094 -0.0507486 0.0632574 
1244 1 -0.113113 -0.0450094 -0.00467875 0.121829 
796 1 -0.040802 0.118131 -0.0401767 0.131278 
691 1 0.0470458 -0.00723073 0.000559821 0.0476015 
421 1 0.0805199 0.0546068 0.0366524 0.103965 
597 1 0.000183747 0.0510351 0.0160796 0.0535086 
3617 2 0.0817866 -0.0193278 -0.0329098 0.0902533 
120 1 0.0812824 0.184458 0.0995502 0.224815 
769 1 -0.084973 -0.0403226 0.0428399 0.103352 
2142 1 0.00551824 0.0432898 -0.0314699 0.0538035 
3611 2 0.150059 0.0133156 0.181069 0.235544 
1915 1 -0.00687312 0.0823268 0.069341 0.107857 
2140 1 0.0314097 -0.031023 0.0983421 0.107797 
3828 2 0.110422 0.0587163 0.0694089 0.143032 
3204 1 -0.0129376 0.0534723 0.0575587 0.079622 
175 1 0.111746 -0.00249473 -0.050266 0.122557 
2011 1 0.163862 0.0800188 0.00602807 0.182456 
75 1 -0.0129889 0.134453 -0.0607581 0.148114 
547 1 0.00960962 -0.0332253 -0.12508 0.129774 
4316 2 -0.0845405 0.0684594 -0.0826467 0.136617 
559 1 0.0180954 0.0320815 -0.0236578 0.0437762 
717 1 -0.00786845 0.0779445 -0.0683485 0.103965 
242 1 -0.00776362 -0.041459 0.0979999 0.106692 
3510 2 -0.110457 0.019667 0.144031 0.182571 
130 1 0.111663 -0.0112655 0.11878 0.163414 
143 1 0.00884983 0.08014 -0.0611838 0.101214 
202 1 -0.150829 -0.115057 -0.068225 0.201599 
182 1 -0.143179 0.0563803 0.0238463 0.155716 
84 1 0.0403828 -0.00756443 -0.00538568 0.0414366 
3633 2 -0.0191855 -0.0448984 -0.00105398 0.0488371 
35 1 -0.172336 0.0447753 0.132695 0.222064 
3612 2 0.0183531 0.0401381 0.00652329 0.0446145 
40 1 0.144183 0.10858 0.0956981 0.204295 
4005 2 0.072428 -0.0831962 0.0572883 0.124296 
718 1 -0.111268 -0.0164705 -0.0532889 0.124465 
134 1 -0.0119583 0.020631 0.108148 0.110746 
511 1 -0.0573861 -0.0358385 -0.00261737 0.0677083 
757 1 0.00249349 0.171778 0.00516942 0.171874 
3555 2 -0.0724527 0.0940649 0.0581533 0.13221 
3481 2 -0.0212295 -0.0277487 -0.0399673 0.0530855 
135 1 -0.00357337 -0.0437289 -0.0953025 0.104917 
369 1 0.0996918 -0.0435434 0.0382728 0.115323 
2148 1 -0.095336 -0.0660403 0.0684788 0.134683 
3462 2 0.056476 -0.0620037 -0.169838 0.189417 
1914 1 0.00620081 0.046094 -0.0107588 0.0477374 
3661 2 0.0998105 -0.142963 0.00328154 0.174388 
1871 1 0.0131596 0.0398781 -0.0442564 0.0610087 
320 1 -0.0736366 -0.05803 -0.0520505 0.107234 
582 1 -0.0534259 -0.098916 -0.055437 0.125347 
766 1 -0.0205603 0.0185189 -0.0175013 0.0327409 
3552 2 0.0335228 -0.00735711 -0.0127115 0.036599 
2290 1 -0.0299258 0.0479175 0.0267491 0.0625072 
1794 1 -0.0269392 0.0897694 0.089703 0.129734 
753 1 -0.0332882 0.0364056 0.0610814 0.0785137 
396 1 0.0190067 -0.00679242 0.167324 0.168537 
496 1 0.00485965 -0.0315319 -0.0950228 0.100236 
480 1 -0.0437094 -0.0676701 0.0958579 0.125214 
253 1 0.0520991 -0.00873039 -0.0473775 0.0709589 
4033 2 -0.0104144 0.0150904 -0.0663405 0.0688276 
347 1 -0.0254194 0.00984187 -0.0784084 0.0830114 
586 1 -0.109116 0.0441006 -0.108395 0.160002 
3671 2 0.00091559 0.0226355 -0.0443607 0.0498104 
37 1 0.0548925 -0.156596 -0.0249791 0.167808 
782 1 0.0309257 -0.144522 -0.0567961 0.158331 
481 1 0.100605 -0.051064 -0.0762187 0.136155 
392 1 -0.0218094 0.0348669 -0.0912488 0.100088 
333 1 0.0431416 -0.0307013 -0.0226138 0.0575773 
342 1 -0.0279727 -0.0579057 -0.0468064 0.0795386 
1179 1 0.0106516 -0.0624422 -0.0647045 0.0905492 
517 1 0.0258495 -0.0981598 -0.0269805 0.105031 
1824 1 0.0351822 -0.0540589 0.0859313 0.107445 
34 1 0.111289 -0.0118648 0.0389817 0.118514 
398 1 -0.0163628 -0.0644881 -0.0833883 0.106677 
170 1 -0.0682067 -0.0650512 -0.0535061 0.108382 
235 1 0.0519257 -0.0839964 0.0959324 0.137676 
3852 2 -0.0457178 0.00930656 -0.0145049 0.0488581 
816 1 0.046206 -0.0489729 -0.108331 0.12755 
3931 2 -0.158598 -0.130779 0.0775361 0.219701 
274 1 -0.0195698 -0.0635429 -0.033176 0.0743056 
30 1 -0.016745 -0.0524317 -0.0381146 0.0669492 
2066 1 0.0866453 -0.0348501 0.153197 0.179419 
1082 1 -0.0266409 -0.143266 0.121734 0.189879 
1372 1 0.00738085 -0.0553663 0.107698 0.121321 
1265 1 0.0612085 -0.0332945 -0.0682387 0.0975271 
601 1 -0.0402903 0.0739846 0.00906516 0.0847302 
540 1 -0.0465137 -0.0891319 -0.0191357 0.102343 
589 1 -0.0411811 0.141755 0.134121 0.199446 
958 1 0.140927 -0.0204212 0.0413471 0.14828 
504 1 -0.0797412 0.0683058 -0.0366375 0.111205 
1349 1 -0.133921 -0.00440627 -0.0594761 0.146601 
9 1 0.0319938 -0.129016 0.00293367 0.132956 
149 1 -0.0189421 0.051943 -0.0151117 0.057317 
163 1 0.00341773 -0.203092 0.0644896 0.213112 
4247 2 0.0334849 -0.091659 -0.0580227 0.113531 
1584 1 0.175737 -0.0104561 -0.0727205 0.190476 
3570 2 -0.0410226 -0.106315 -0.0425123 0.121627 
237 1 0.0131145 0.0668074 0.106566 0.126458 
490 1 0.0246751 -0.0991915 -0.020618 0.104273 
50 1 -0.0139074 0.00155347 0.0143636 0.0200535 
152 1 0.0981327 -0.00386989 -0.131982 0.164512 
3652 2 -0.0663603 -0.0464579 -0.00590703 0.0812214 
3823 2 0.0802975 0.0938415 -0.152647 0.196354 
902 1 0.013183 0.0634512 -0.00390038 0.0649234 
3574 2 -0.0304544 0.0571251 -0.0464911 0.0797005 
770 1 -0.0153264 -0.059625 -0.0642232 0.0889643 
154 1 -0.054112 -0.0598883 -0.00454157 0.0808415 
116 1 0.0943376 -0.0534063 0.085212 0.137887 
710 1 -0.0907268 -0.164538 -0.102294 0.213935 
1956 1 -0.0574348 -0.000405834 0.00035502 0.0574373 
1810 1 -0.109551 -0.0200819 0.0402266 0.118418 
2072 1 -0.0655019 -0.0361288 -0.0132417 0.075968 
1649 1 -0.0661911 0.0208416 -0.105942 0.126646 
186 1 -0.0662425 0.0818593 0.0702551 0.126589 
1063 1 -0.130212 0.144745 -0.159113 0.251442 
432 1 -0.174153 0.0560906 -0.144957 0.233427 
2495 1 -0.00390718 -0.101212 0.0470238 0.111671 
3896 2 -0.0191367 -0.0180533 -0.102652 0.105969 
4115 2 0.0652271 -0.00870163 -0.0366757 0.0753352 
913 1 0.0498413 -0.0187607 0.00326429 0.0533552 
1068 1 -0.0655394 0.012207 -0.0419085 0.0787448 
265 1 -0.090186 -0.0310279 -0.0658929 0.115923 
1287 1 0.0349264 0.0900066 0.020209 0.098638 
3799 2 0.111249 -0.0852823 -0.13469 0.194399 
554 1 0.0988849 -0.0761985 0.00132248 0.124845 
1414 1 0.0006273 0.0598713 -0.0612175 0.0856303 
213 1 0.0114915 0.00758162 0.0551618 0.0568538 
341 1 -0.111287 -0.0413044 -0.0238851 0.121084 
3682 2 -0.00743179 0.081093 -0.0604118 0.101395 
754 1 -0.0843905 0.0232489 0.0342369 0.0939917 
112 1 -0.0455716 0.0397106 0.00185503 0.0604744 
1041 1 -0.013409 -0.0109495 0.00826786 0.0191847 
119 1 0.0337034 0.0759122 0.00974516 0.0836275 
415 1 -0.0661212 -0.00250801 -0.0516443 0.0839371 
995 1 -0.066615 0.0491886 0.0167594 0.0844864 
4128 2 0.0501095 -0.0252003 0.201684 0.209338 
8 1 0.0187212 0.0724638 0.0108589 0.0756267 
94 1 0.0457022 -0.0076917 -0.0138766 0.0483778 
48 1 0.0530089 -0.00456275 0.0710466 0.0887603 
437 1 0.0251178 -0.0525507 -0.0569213 0.0814402 
3866 2 0.0688796 0.0163679 -0.0485023 0.0858183 
2206 1 0.0212096 0.0106678 -0.0136896 0.0274053 
3490 2 -0.0846602 0.0209653 -0.0599221 0.105818 
3072 1 -0.0363876 -0.0968911 0.0496618 0.114796 
3002 1 0.0853659 0.107868 0.0208164 0.139126 
92 1 0.0453631 0.0947232 0.0856471 0.13552 
335 1 -0.00818236 0.0654896 -0.0311291 0.0729716 
2192 1 -0.0104465 0.0234167 0.106159 0.109212 
1186 1 0.0375445 -0.0294709 -0.0234251 0.0531682 
1114 1 0.0507959 -0.0358584 0.0236739 0.0665319 
1821 1 -0.0849706 -0.0767988 -0.0623863 0.130423 
1922 1 0.0598703 -0.0886863 0.0559618 0.120754 
451 1 -0.118494 -0.0299923 -0.0131177 0.122933 
3960 2 -0.0100244 -0.039233 0.0434385 0.0593853 
100 1 -0.0437574 0.00847385 -0.0791078 0.0907996 
1180 1 0.0345964 -0.0517104 -0.101026 0.118647 
165 1 0.0703177 -0.022693 -0.0195187 0.0764233 
388 1 -0.0687236 -0.0254847 -0.0812251 0.109407 
3742 2 0.0484175 -0.0578487 0.0140062 0.0767262 
323 1 -0.130497 0.138479 -0.00540062 0.190355 
288 1 -0.0989488 0.0200048 -0.0166922 0.102321 
3942 2 -0.096958 0.0951571 0.107605 0.173305 
66 1 0.0634965 0.0221116 0.0697042 0.0968474 
340 1 0.0540223 0.0561163 -0.0430966 0.0890212 
138 1 -0.0162488 -0.0138855 0.0290993 0.0361054 
879 1 -0.0283855 -0.0416943 -0.0646626 0.0820086 
3808 2 0.0745835 0.136144 -0.034112 0.158939 
834 1 0.0469581 0.0267841 0.00611968 0.0544049 
18 1 -0.0786201 -0.0634623 -0.0895074 0.134982 
3679 2 0.0795353 -0.0496931 -0.0614878 0.112143 
52 1 0.0277188 -0.110386 0.00949941 0.114209 
407 1 0.0219441 0.0428179 -0.0701545 0.0850681 
360 1 0.0715706 -0.0382183 -0.0681841 0.105981 
2885 1 -0.0804171 -0.0157594 -0.00866678 0.0824037 
3526 2 -0.0396786 -0.232252 -0.045027 0.239881 
310 1 -0.0881183 -0.0448408 -0.034755 0.104802 
326 1 0.120771 -0.0211009 0.0815523 0.147247 
227 1 -0.0387633 -0.0570762 -0.0512921 0.0859719 
2068 1 -0.134509 -0.0117863 -0.138458 0.193397 
456 1 0.0694278 -0.0163818 0.0491554 0.0866305 
279 1 0.00243555 0.0410231 0.133351 0.13954 
305 1 0.0102204 0.045675 -0.0430403 0.0635856 
49 1 0.00306509 0.0856429 0.0473638 0.0979154 
3512 2 0.0258783 -0.133083 0.0351652 0.140062 
11 1 -0.080389 -0.189533 0.0182169 0.206681 
189 1 -0.103161 0.115452 0.0405035 0.160037 
2271 1 -0.110762 -0.0631549 -0.0302689 0.131046 
319 1 -0.116189 -0.0605176 0.00920688 0.131328 
3566 2 0.0416925 0.051362 -0.0657753 0.0932883 
71 1 0.0359802 -0.00399059 0.0587446 0.0690031 
1560 1 -0.0314947 0.00723463 0.0550134 0.0638023 
190 1 -0.0684086 0.00759052 0.111651 0.131161 
123 1 0.0828498 -0.002373 0.105511 0.134172 
27 1 -0.0309757 -0.0199328 -0.0170149 0.0405748 
162 1 0.0116486 0.0410207 -0.0861346 0.0961122 
255 1 -0.121205 -0.00610613 -0.0115622 0.121908 
304 1 -0.0706725 -0.011127 -0.0774942 0.105469 
321 1 0.0175218 -0.0417811 0.143988 0.150948 
682 1 -0.0978418 0.0111272 0.0067419 0.098703 
3469 2 0.0249762 0.0110766 -0.0813483 0.0858141 
3539 2 0.0172457 0.0122351 0.113202 0.11516 
128 1 0.0441923 -0.0770506 -0.0946863 0.129828 
3562 2 0.110456 0.0178917 0.137982 0.177651 
560 1 -0.175555 -0.056502 -0.0573091 0.193122 
212 1 -0.0406085 0.0643665 -0.0679436 0.102022 
355 1 0.015272 0.0489437 0.0804843 0.0954276 
156 1 0.00704507 0.0820371 0.0547893 0.0989019 
3620 2 0.0585197 -0.0731036 -0.00333776 0.0937008 
1823 1 0.211589 -0.153602 -0.0898599 0.276475 
1805 1 -0.132001 0.042549 0.0960287 0.168689 
2599 1 -0.0819995 0.0384225 0.096371 0.132241 
327 1 0.10318 0.0203918 0.0408449 0.112828 
137 1 0.0742431 0.0412228 -0.000687175 0.0849224 
2334 1 0.00492685 0.0193641 0.0357029 0.0409138 
3698 2 0.0239939 -0.0613978 -0.0109718 0.0668265 
555 1 -0.0317541 -0.0481474 -0.0419083 0.0712938 
4178 2 -0.0158628 -0.086892 0.0484791 0.100758 
290 1 -0.00343771 0.00724523 -0.0178391 0.0195587 
284 1 0.02932 0.0291286 -0.0210132 0.0463647 
3543 2 -0.0703638 -0.053132 0.0157381 0.0895643 
366 1 0.0325375 -0.0179377 0.0965565 0.103458 
55 1 0.0149492 0.0510587 -0.0100821 0.054149 
273 1 -0.0359346 -0.00869791 -0.0750582 0.0836701 
3468 2 0.105631 -0.0224085 0.105045 0.150648 
316 1 0.14988 0.0386659 0.118163 0.194735 
81 1 -0.0547527 -0.0348538 0.000524529 0.064907 
322 1 0.0456294 -0.0582444 0.0476485 0.0880047 
239 1 0.0195528 -0.00171184 -0.0563149 0.0596373 
734 1 -0.00227378 -0.0577866 -0.0684273 0.0895922 
384 1 0.0518824 -0.0892107 -0.0941123 0.139669 
3476 2 0.00565025 0.0951791 0.0145602 0.096452 
311 1 -0.0492338 -0.0915072 -0.0588802 0.119434 
3471 2 0.035634 0.0378117 0.0638654 0.0823304 
1938 1 0.074841 -0.0575525 0.0147387 0.0955546 
139 1 0.177385 -0.00758824 -0.0295301 0.179986 
727 1 0.0917801 -0.103265 0.00701964 0.138335 
1885 1 -0.00764099 0.0406287 -0.0444154 0.0606778 
2184 1 0.191617 0.120637 -0.0659918 0.23585 
2494 1 -0.163923 -0.00524901 -0.13446 0.21208 
2091 1 -0.00769934 0.0236308 -0.0685702 0.0729354 
281 1 0.0211945 0.103863 0.127621 0.165903 
863 1 -0.0144429 0.0684923 -0.0889528 0.113192 
176 1 -0.0587954 0.0437293 -0.0744984 0.104495 
3710 2 0.00335332 0.0677893 -0.0595258 0.0902771 
3572 2 -0.0252608 -0.117777 -0.102116 0.157915 
4197 2 -0.0530961 0.077372 -0.0903991 0.130298 
343 1 -0.0539755 -0.0394135 -0.11199 0.130417 
282 1 -0.0564644 -0.0221432 -0.0599831 0.0853025 
1038 1 0.0103574 0.0722716 0.0727197 0.103047 
408 1 0.196797 -0.00619126 0.00541182 0.196968 
412 1 0.123543 -0.0332684 -0.00784796 0.128185 
820 1 0.132304 0.0325484 0.098266 0.167988 
585 1 -0.0976143 -0.0269376 -0.114471 0.152832 
3609 2 0.0899613 -0.124707 0.0306206 0.156788 
719 1 -0.0149956 0.0400324 -0.0217364 0.0479576 
608 1 0.0489178 0.0804711 0.0741321 0.11985 
106 1 0.0117235 0.0488515 0.0518084 0.0721666 
1047 1 -0.125334 -0.049366 -0.0385447 0.140111 
3573 2 0.0363554 0.0509615 -0.0804036 0.1019 
751 1 -0.0111745 -0.0189011 -0.0848657 0.0876602 
259 1 0.0761318 -0.0236591 -0.00575052 0.0799304 
245 1 -0.0651194 -0.0431136 -0.002817 0.0781489 
613 1 -0.0575182 -0.0797147 0.102282 0.141861 
4296 2 -0.0166773 0.0572738 0.0245819 0.064519 
272 1 -0.107864 -0.134025 -0.0397784 0.176578 
4239 2 -0.117333 -0.0966176 -0.0836893 0.173511 
88 1 0.086679 0.107168 0.107212 0.174622 
4 1 0.0649594 0.00153157 -0.0715326 0.0966384 
361 1 0.119541 0.101485 -0.154996 0.220484 
358 1 -0.0618471 0.0103383 0.0373005 0.0729608 
194 1 0.0326017 0.0419549 -0.101384 0.114463 
2373 1 0.0193492 0.0022002 -0.0974666 0.099393 
1982 1 0.0487826 0.0275701 0.0424494 0.070298 
3953 2 0.00975728 0.0468922 0.0987174 0.109723 
414 1 0.0241771 0.0311045 -0.105303 0.112431 
3186 1 0.0977006 -0.062275 -0.0136163 0.116658 
177 1 0.0668049 -0.0544887 0.014851 0.0874784 
1962 1 -0.0244157 0.0814172 0.150299 0.172669 
706 1 -0.00238042 0.0397973 -0.029383 0.0495263 
1544 1 0.019609 -0.134173 0.0750017 0.154959 
4160 2 -0.0270511 0.0630005 -0.0328872 0.0760421 
19 1 -0.0639426 0.0569672 -0.10515 0.135611 
3624 2 -0.0332736 -0.0124853 -0.0790739 0.0866932 
115 1 0.0693021 -0.0416274 -0.0860482 0.118067 
1102 1 -0.0590768 -0.0360067 0.0535045 0.0874602 
2048 1 0.103261 -0.0151043 -0.0151266 0.105451 
649 1 0.0322831 0.105395 -0.0282343 0.113787 
113 1 0.00107533 -0.0452138 0.0152594 0.0477315 
1150 1 -0.00958946 0.00739688 0.0503123 0.0517494 
620 1 0.0201297 -0.0755509 -0.0118066 0.0790731 
739 1 -0.0332977 -0.0411328 -0.0573279 0.0780201 
2412 1 0.00324869 0.0273392 -0.0117128 0.0299195 
3746 2 0.104177 0.0306861 -0.173074 0.204326 
1225 1 -0.017667 0.0335633 0.119998 0.12585 
241 1 0.120368 -0.0210785 0.00461346 0.122287 
83 1 0.020742 -0.0170932 -0.0106934 0.0289267 
1006 1 0.0512466 0.00580472 -0.00729747 0.052088 
4046 2 -0.0752035 -0.0960638 -0.0308441 0.125838 
96 1 -0.0207806 -0.150104 0.0417359 0.157178 
411 1 0.11711 0.0490834 0.0698635 0.14493 
2454 1 -0.0683901 0.00881296 0.0477351 0.083866 
404 1 -0.0760292 0.0892884 0.081862 0.143018 
226 1 0.0404424 -0.013757 0.0627335 0.0758969 
534 1 0.0523759 -0.0409189 0.122645 0.139497 
3538 2 -0.0523852 0.068962 -0.0588775 0.104721 
761 1 0.0584809 -0.0410499 0.0689408 0.0992871 
246 1 0.0462004 -0.0432804 0.0117532 0.0643879 
2229 1 -0.0337271 -0.149253 -0.0175934 0.154024 
146 1 0.00350972 -0.0905823 -0.0619365 0.109789 
3608 2 0.0254711 -3.27878e-05 0.017496 0.0309013 
503 1 0.00375148 -0.00533222 0.0150687 0.0164187 
505 1 0.133151 -0.0538344 0.0212386 0.145184 
1430 1 -0.0596387 -0.0579367 -0.0576397 0.101172 
97 1 -0.084299 0.0525439 -0.103884 0.143732 
1723 1 0.0325662 0.00154532 -0.0932874 0.0988204 
3561 2 0.0615948 0.179146 -0.0592644 0.198493 
20 1 -0.0708512 -0.0389935 0.0141952 0.082109 
263 1 -0.0544517 0.156536 -0.00811926 0.165935 
817 1 0.104283 -0.0810184 0.0196757 0.133514 
1034 1 0.0093354 0.0367207 0.0147541 0.0406601 
353 1 0.0351964 -0.0420437 0.184109 0.1921 
1260 1 0.0493527 0.119987 -0.0446398 0.137205 
998 1 0.0454876 0.112343 -0.0735466 0.141772 
1932 1 0.132532 -0.142216 -0.0424008 0.198967 
36 1 0.10525 -0.167616 -0.0599033 0.206788 
38 1 0.0348998 0.0357897 -0.0290663 0.0578252 
3130 1 -0.0599389 -0.0487624 -0.058261 0.0967718 
1973 1 0.0941329 0.0388462 0.142625 0.175248 
307 1 0.0685252 -0.0348512 -0.00351446 0.0769588 
2714 1 0.0710325 0.0278035 0.0204472 0.078973 
28 1 0.085126 0.0453683 -0.00423207 0.0965538 
1937 1 0.00519293 0.0621278 -0.0593168 0.0860541 
562 1 -0.075425 -0.115528 -0.00664374 0.138129 
3011 1 -0.0356775 0.00961761 -0.0152474 0.0399733 
410 1 0.0775298 -0.0918455 0.0429924 0.127651 
693 1 0.0787173 0.0846303 0.181713 0.215356 
367 1 -0.00398601 0.00426371 0.00755771 0.00954916 
318 1 0.0374492 0.0365547 -0.113686 0.125153 
735 1 0.137475 0.00318415 0.0231276 0.139443 
600 1 -0.00633494 0.0356226 0.0271297 0.045223 
3590 2 0.0066773 0.0858163 0.0288254 0.090774 
3636 2 0.0545731 -0.0784457 0.0479758 0.106928 
26 1 -0.137918 0.0553525 0.0729606 0.165555 
1199 1 0.0226207 0.0672091 -0.0675759 0.0979554 
614 1 0.0133369 -0.0162007 -0.0563347 0.060116 
459 1 -0.0349551 -0.0801484 -0.0642658 0.108516 
3645 2 0.0700912 0.119656 0.0648904 0.153105 
574 1 0.0687067 -0.0613575 0.0992941 0.135443 
780 1 0.134337 0.00740864 0.00642313 0.134694 
161 1 -0.11365 -0.0409108 0.0783825 0.143992 
309 1 0.111202 0.0919666 -0.0104077 0.144679 
365 1 0.046979 -0.151823 -0.0734202 0.175065 
191 1 -0.0742682 0.0932996 -0.00552632 0.119378 
1766 1 -0.0689037 0.000109415 -0.0300118 0.0751561 
2775 1 0.0852267 -0.0538738 -0.0695752 0.122502 
1030 1 0.155352 -0.110763 -0.00697137 0.190922 
1505 1 0.156174 0.170506 0.123674 0.262218 
3872 2 -0.0433647 0.0217703 -0.00109104 0.0485349 
580 1 -0.0343707 -0.0340658 0.0108316 0.0495898 
2054 1 -0.0655897 -0.087827 -0.045603 0.118723 
2064 1 0.108048 0.0126061 -0.0425558 0.116809 
529 1 -0.0108176 0.0414024 -0.0858332 0.0959089 
402 1 -0.0235299 0.0641529 0.0301153 0.0746738 
124 1 -0.0532913 -0.107321 0.051499 0.130422 
744 1 0.114976 -0.013512 0.0493699 0.125855 
185 1 0.0657563 -0.0297404 0.0849685 0.111481 
315 1 -0.0110975 -0.0359476 -0.0395807 0.0546079 
655 1 -0.0121628 -0.0692692 0.162229 0.176818 
765 1 -0.00708077 0.0527502 0.0257245 0.0591141 
140 1 0.0147225 0.092738 -0.14804 0.175308 
59 1 -0.0299433 0.00110073 0.0748382 0.0806137 
54 1 0.0072148 0.0448875 0.0215368 0.0503069 
3506 2 -0.0348843 0.126794 -0.111914 0.17268 
666 1 -0.0112611 -0.165096 0.0638939 0.177387 
43 1 0.0892615 0.081898 0.0885471 0.150052 
334 1 -0.052482 -0.0454619 0.0386879 0.0794852 
267 1 0.145938 0.0318982 -0.100966 0.180304 
99 1 0.0738262 0.114972 0.0753067 0.156012 
1189 1 -0.106914 -0.0260661 -0.176045 0.20761 
201 1 -0.0356886 -0.079686 -0.0518688 0.101557 
380 1 0.0076918 0.122001 -0.161227 0.20233 
1777 1 0.00812002 -0.0176805 -0.0528956 0.0563603 
2597 1 0.246807 -0.0243305 0.0218883 0.248968 
2484 1 0.135721 -0.040242 -0.0514907 0.150635 
308 1 -0.00164927 -0.00484973 -0.0640642 0.0642687 
3918 2 -0.0395896 0.119321 0.0747697 0.146271 
89 1 -0.0954169 0.0537585 -0.01973 0.111282 
300 1 -0.0144066 -0.00305584 0.0104589 0.0180631 
3582 2 0.0414121 0.0060663 -0.0146914 0.0443576 
712 1 -0.0720293 0.0735859 0.00626393 0.103162 
3836 2 -0.0176013 0.066355 -0.0607077 0.0916418 
268 1 -0.0189412 -0.0172702 0.0262535 0.0366916 
788 1 -0.0278081 0.11657 -0.0832891 0.145942 
4091 2 -0.00895345 0.154353 -0.0132073 0.155175 
371 1 0.0137328 0.0700103 0.122553 0.141808 
3505 2 0.0630281 -0.0191101 0.0258774 0.0707628 
266 1 0.125988 -0.0772828 -0.0843482 0.170177 
3571 2 0.00438724 -0.0591654 0.0720549 0.0933365 
637 1 -0.0126878 -0.00154238 -0.0890761 0.0899884 
157 1 -0.0665043 -0.0165366 0.0917317 0.114503 
257 1 0.0134135 0.012281 0.0128522 0.0222694 
571 1 -0.0214423 0.0457794 -0.00386183 0.0506995 
665 1 -0.154241 -0.0309241 0.169401 0.231178 
448 1 -0.13103 -0.0961406 0.0223455 0.164047 
827 1 0.0787555 0.0959178 0.0210948 0.125887 
3475 2 0.0843714 0.0433461 0.0591335 0.111777 
73 1 -0.0368401 0.075951 0.00421576 0.0845193 
373 1 0.10227 -0.00101841 0.0967833 0.140809 
247 1 0.0325028 -0.0318691 -0.0605773 0.0757738 
107 1 0.0629388 0.0440626 -0.0566005 0.0954275 
675 1 -0.0622117 0.073493 -0.107761 0.144513 
434 1 0.0200315 0.0683428 -0.00698795 0.07156 
159 1 -0.0633194 0.0751766 -0.0266682 0.101843 
32 1 0.0709519 0.112181 0.00433377 0.132806 
3579 2 0.075745 -0.0539864 -0.0933764 0.131799 
394 1 -0.0581589 0.0110532 0.058519 0.0832413 
260 1 -0.0257887 0.0678699 0.0227417 0.0760826 
3972 2 -0.0744118 0.0472688 0.0876599 0.124321 
1801 1 -0.0570726 0.0371072 0.0586736 0.0898711 
2122 1 -0.0107707 0.0171189 0.155065 0.156378 
1966 1 -0.00866162 -0.0737059 -0.101717 0.125912 
291 1 -0.011131 0.0142261 0.0374474 0.0415763 
2047 1 0.0875007 0.0395885 0.0495499 0.108069 
1899 1 0.0320288 0.0609263 -0.00276633 0.0688876 
622 1 -0.0386498 0.103164 -0.00333054 0.110217 
1993 1 -0.0122439 -0.00909461 0.00193322 0.0153741 
62 1 0.0201824 0.0528466 0.0607187 0.0829871 
2187 1 -0.0612291 0.0151399 -0.107837 0.124928 
4318 2 0.0821664 0.0129193 0.00176167 0.0831946 
44 1 -0.00641378 0.00311526 0.0921353 0.0924108 
824 1 0.0447599 -0.0114746 0.0697437 0.0836618 
1282 1 0.00774786 -0.00287803 0.111751 0.112056 
3626 2 0.129258 0.0864579 -0.0301624 0.158406 
819 1 0.0489766 0.0824504 0.0772308 0.123132 
773 1 -0.123087 -0.154847 0.0482631 0.203611 
270 1 -0.0430066 -0.0542199 -0.030075 0.0754578 
14 1 -0.0979931 -0.0445145 -0.0133376 0.108453 
3540 2 0.0607986 -0.0133989 -0.00892151 0.0628935 
997 1 0.0659831 -0.0887719 -0.0494604 0.121163 
4275 2 -0.0353414 -0.0762289 -0.145252 0.167804 
164 1 0.0387288 0.0584932 0.156536 0.171537 
234 1 0.0420614 -0.0206685 0.0831723 0.0954672 
1125 1 -0.0166893 -0.0024641 -0.0732681 0.0751853 
3985 2 -0.0449217 -0.0102744 0.0521438 0.0695881 
328 1 0.0244303 -0.00212897 -0.0449317 0.0511881 
3474 2 0.0125608 0.0027526 -0.0648858 0.0661477 
543 1 -0.0804417 0.00870286 -0.000123892 0.0809112 
293 1 0.105047 -0.0702742 0.0909682 0.155719 
3458 2 0.100369 -0.0410494 0.100783 0.148041 
390 1 -0.00798835 -0.0156295 -0.0815643 0.0834316 
3706 2 0.0993656 -0.20862 -0.109735 0.255808 
2169 1 0.0845029 0.106336 -0.0477214 0.143963 
1786 1 0.0302594 0.0123919 -0.058167 0.0667277 
1478 1 -0.026847 0.0456636 0.145075 0.154443 
87 1 0.0287707 0.00371995 -0.0453704 0.0538522 
4090 2 -0.0436558 -0.040424 0.040455 0.0719482 
142 1 0.00198425 0.0261814 0.0295897 0.0395594 
1650 1 -0.0821407 -0.0827413 -0.0868244 0.145367 
153 1 0.040851 0.00615077 0.0105312 0.0426327 
374 1 0.0423759 -0.0405789 -0.058973 0.0831876 
602 1 0.0233258 -0.080747 -0.0979598 0.129075 
1277 1 -0.0651967 0.0055457 0.0348483 0.0741335 
76 1 0.0167294 -0.0395901 0.135891 0.142526 
1370 1 0.0610565 -0.0232429 0.090205 0.111378 
221 1 -0.0189442 0.0876793 -0.0135829 0.0907251 
604 1 -0.0661447 0.0494398 0.0941642 0.125245 
1161 1 -0.0591557 -0.0700213 0.0103392 0.0922458 
1718 1 -0.10961 0.03625 -0.134556 0.177295 
178 1 -0.0381536 -0.247855 -0.028275 0.252364 
295 1 -0.153224 -0.0757143 0.00278439 0.170933 
1472 1 -0.0967773 -0.0101311 -0.00724328 0.0975753 
4159 2 -0.00260346 -0.0305173 -0.0255379 0.0398782 
3467 2 0.107864 -0.017491 -0.0140006 0.110166 
3531 2 -0.0545588 -0.0850812 0.136692 0.170001 
2720 1 -0.0618456 0.0900646 -0.0709286 0.130259 
1851 1 -0.0217955 0.00321565 -0.00469233 0.0225256 
732 1 0.00126549 -0.0819238 0.025119 0.0856975 
4009 2 -0.0553388 0.143165 -0.014228 0.154146 
3878 2 0.0569764 0.0582156 -0.036722 0.0893525 
3185 1 -0.191282 -0.0201175 0.029691 0.194615 
110 1 -0.0705956 0.00561824 0.034476 0.0787648 
2963 1 -0.0467302 0.015121 -0.0324043 0.0588421 
2608 1 -0.0340526 0.000822312 -0.0144819 0.0370132 
3301 1 0.0273915 0.0148895 0.103834 0.108414 
3759 2 -0.0353383 -0.0521137 -0.0324273 0.0708249 
4171 2 -0.0804115 0.0255634 0.0280748 0.0889252 
2118 1 -0.00378534 0.0678492 -0.0326031 0.0753711 
1742 1 0.0130657 -0.0177623 0.0428568 0.0481967 
642 1 0.0331379 -0.182977 0.0300873 0.188372 
3366 1 -0.0426911 0.0279455 0.101481 0.113587 
144 1 0.138891 0.166547 0.0217993 0.217954 
681 1 0.0588152 -0.0298952 -0.120124 0.13705 
1666 1 0.0740953 -0.0655505 -0.0321052 0.104008 
183 1 -0.106294 -0.103594 -0.0418055 0.1542 
694 1 -0.159839 0.00651145 0.0675129 0.173634 
444 1 -0.0536595 0.0499062 -0.138659 0.156832 
869 1 -0.0563736 -0.150409 0.1395 0.212747 
920 1 -0.0339898 -0.12614 -0.0163694 0.131661 
53 1 0.0684177 -0.0100768 0.0479483 0.0841521 
1450 1 -0.245236 -0.0370083 -0.0904447 0.26399 
1579 1 0.0792297 -0.107366 0.0643686 0.148149 
51 1 0.126267 0.0128439 -0.0408194 0.133321 
4187 2 -0.114101 -0.0860496 -0.16809 0.22063 
1694 1 -0.00125486 -0.127926 0.192139 0.230834 
1590 1 0.0334162 0.0162701 -0.0751076 0.0838004 
2005 1 0.0234226 -0.0572629 0.127296 0.141534 
736 1 -0.104109 0.009461 -0.0255992 0.107627 
363 1 0.107451 0.00271284 0.0132999 0.108305 
230 1 0.0154211 0.0267007 0.109055 0.11333 
2538 1 0.0671053 -0.0565847 -0.0453952 0.0988214 
357 1 -0.0671459 -0.000323352 -0.0327776 0.0747198 
3849 2 0.162668 -0.0478019 -0.0923321 0.193057 
4102 2 0.00662678 -0.125599 0.0474647 0.134431 
1032 1 0.0719923 0.0254316 0.0506029 0.0915986 
78 1 0.0040028 0.0625304 -0.0356846 0.0721073 
564 1 0.246307 -0.0540093 0.0989387 0.270875 
797 1 0.154619 -0.0617027 -0.0433832 0.172036 
1476 1 0.216204 0.00383663 -0.0286072 0.218122 
872 1 -0.109982 -0.00126524 -0.0925711 0.143761 
475 1 -0.0309206 -0.0404054 0.0174779 0.0537974 
4119 2 0.237572 -0.115561 -0.101458 0.282999 
576 1 -0.155146 0.0204848 0.0577682 0.166814 
507 1 0.0673492 -0.095686 0.0149266 0.11796 
248 1 0.0669451 -0.0432005 -0.0143713 0.0809596 
3597 2 -0.0762262 0.0672732 0.0950524 0.13918 
539 1 0.0178952 -0.0101139 0.0672196 0.0702923 
63 1 0.0705095 0.0143419 0.0976271 0.121278 
57 1 -0.0486596 -0.032987 0.0160023 0.0609259 
854 1 -0.0330579 0.045426 0.0157169 0.0583384 
668 1 0.105414 -0.13136 -0.111104 0.201771 
385 1 -0.0980862 -0.242431 0.0625428 0.268897 
752 1 0.0255831 0.0515854 -0.0114587 0.0587099 
3650 2 -0.0167814 0.151424 -0.0501012 0.160378 
3736 2 -0.0886593 -0.164255 0.0178951 0.187511 
254 1 -0.137778 -0.155603 0.00968385 0.208059 
3637 2 -0.00905009 -0.000510727 0.0919057 0.0923516 
731 1 -0.00308455 -0.0242651 -0.0268919 0.0363522 
2304 1 0.10278 -0.124959 -0.0377098 0.166134 
610 1 -0.173611 0.011233 -0.111354 0.206559 
292 1 -0.135063 0.0153592 0.00785041 0.13616 
313 1 -0.118393 0.0113466 0.0361016 0.124294 
2133 1 0.00804645 -0.132791 -0.0204081 0.134591 
646 1 -0.108154 -0.0304965 -0.0842443 0.140444 
271 1 0.0187499 0.100851 0.0637299 0.120764 
584 1 -0.0500892 0.104804 -0.0937824 0.149291 
3649 2 -0.0950242 0.0322957 0.039978 0.108032 
1148 1 -0.0368474 0.1196 0.141024 0.188546 
779 1 -0.0825092 -0.0638953 0.00789303 0.104655 
621 1 -0.119857 0.0269262 0.0674775 0.140157 