ITEM: TIMESTEP
100
ITEM: NUMBER OF ATOMS
4320
ITEM: BOX BOUNDS pp pp pp
0.0000000000000000e+00 1.9309999999999999e+01
0.0000000000000000e+00 1.9309999999999999e+01
0.0000000000000000e+00 9.6549999999999994e+00
ITEM: ATOMS id type c_displacement[1] c_displacement[2] c_displacement[3] c_displacement[4] 
4012 2 0.00739738 -0.148493 -0.0740152 0.166082 
2361 1 -0.0706423 -0.0268327 -0.149914 0.167883 
1063 1 -0.258307 0.207001 -0.165626 0.370141 
2156 1 -0.105403 0.0664617 -0.043405 0.131951 
1992 1 0.0266191 -0.0371297 -0.16218 0.168492 
79 1 0.0532376 -0.0261854 -0.0816746 0.100949 
781 1 0.0442415 0.0787576 0.111926 0.143831 
461 1 0.045907 0.04438 0.0930958 0.112889 
3704 2 0.0712208 -0.0903763 0.076902 0.138399 
629 1 -0.00632732 0.0859091 0.0658561 0.108432 
1571 1 0.0395907 -0.0742388 -0.0722094 0.110874 
58 1 0.0574703 0.185529 -0.00671569 0.194342 
372 1 -0.0177539 -0.0629827 -0.0513137 0.0831571 
3504 2 -0.0577935 -0.0303975 0.0455672 0.079627 
4130 2 0.0490433 -0.0109429 -0.0766019 0.0916125 
1262 1 0.0313298 -0.0240171 -0.0567162 0.0691021 
907 1 -0.0981758 -0.0255267 -0.164657 0.193396 
3659 2 0.0558003 0.0614856 -0.0249273 0.0866921 
1298 1 0.0802116 0.0495324 -0.0747023 0.120282 
1716 1 0.0321646 0.0450986 -0.0291443 0.0625926 
3815 2 -0.00158088 0.0696782 -0.0204863 0.0726446 
1182 1 0.00525412 0.0582127 -0.0393294 0.0704494 
683 1 0.051355 -0.060681 0.0179005 0.0814859 
1958 1 -0.0893138 0.0253457 -0.0370014 0.0999423 
1037 1 -0.0274703 -0.0884303 -0.00741358 0.0928951 
598 1 0.0458248 -0.187189 0.0228987 0.194072 
1703 1 -0.0731952 -0.0683501 0.116293 0.153471 
1554 1 0.0219684 -0.073994 -0.0594105 0.0974029 
749 1 0.0470712 -0.183037 -0.0754468 0.203496 
3628 2 0.0301721 -0.017002 0.0573032 0.0669558 
946 1 -0.133197 -0.0668976 0.0428512 0.15509 
2206 1 0.0455378 0.0296492 -0.0804911 0.0971163 
7 1 0.0392193 -0.0661001 0.0790027 0.110222 
501 1 0.0163627 -0.0518772 0.0530862 0.0760074 
179 1 -0.0487453 0.0107621 0.0838384 0.0975746 
714 1 -0.106443 0.0592965 -0.0109436 0.122335 
4163 2 -0.0438234 -0.0493717 0.0227489 0.0698252 
1186 1 -0.0558948 -0.0274502 -0.00700238 0.062664 
4166 2 0.00959699 -0.0157181 0.109963 0.111494 
276 1 0.0116786 -0.0774945 0.0419042 0.0888693 
767 1 0.0612668 0.0232292 0.0723969 0.0976449 
3890 2 -0.101733 -0.0596012 -0.0452212 0.126281 
6 1 0.0121172 0.163637 0.0961568 0.190184 
2086 1 0.114777 0.0217742 -0.000499305 0.116825 
224 1 0.103734 -0.0974814 0.0299825 0.145472 
3660 2 0.0454997 -0.0403157 0.120121 0.134627 
596 1 -0.0555433 -0.051675 -0.0497999 0.0907491 
1214 1 0.100331 -0.0283344 -0.0382066 0.111036 
3686 2 -0.0602316 -0.00384876 0.0403632 0.0726075 
427 1 -0.149513 -0.0187952 0.0510127 0.15909 
350 1 0.0569453 0.0310003 -0.0691768 0.0948115 
85 1 -0.0678355 0.0352499 0.0781827 0.109347 
3554 2 0.11117 0.0140861 -0.0172134 0.113373 
29 1 -0.236096 0.112281 -0.0107933 0.261658 
464 1 0.00913993 -0.0319375 -0.0606884 0.0691854 
3619 2 -0.0733667 -0.0478151 0.167053 0.188615 
114 1 -0.182169 0.116798 0.0794065 0.230505 
364 1 -0.149289 -0.0220694 -0.0266153 0.15324 
1849 1 -0.0801258 -0.0498423 -0.130749 0.161244 
3663 2 -0.232796 0.0620888 -0.112532 0.265918 
3517 2 0.0017049 0.0295176 0.166913 0.169512 
399 1 0.00677216 0.0752408 -0.0425972 0.0867269 
4265 2 -0.0492849 0.0239976 0.196776 0.204269 
527 1 -0.0245363 0.0561518 0.00462157 0.0614525 
200 1 0.0576781 0.0670999 0.0885999 0.125216 
1951 1 0.0572951 0.0791029 0.00473474 0.0977877 
644 1 0.042214 -0.044394 -0.0166388 0.0634799 
193 1 -0.0268812 0.0106496 0.0326794 0.0436344 
550 1 0.0993525 -0.057353 0.0486645 0.124613 
842 1 0.0674351 -0.0186236 -0.0264428 0.0747901 
69 1 0.0889705 -0.0487686 0.0068026 0.101688 
578 1 0.0671637 -0.0862645 -0.0365992 0.115291 
172 1 0.0132532 -0.0259052 0.101621 0.105705 
381 1 -0.0241118 -0.0202966 0.06094 0.0686077 
3524 2 -0.00509091 0.0840042 0.0778838 0.114667 
688 1 -0.0284774 0.168666 0.0549916 0.179675 
3651 2 0.0119174 0.0122528 0.100648 0.102089 
2367 1 0.0784746 0.102712 -0.0995667 0.163161 
1244 1 -0.138869 0.0173539 -0.00174414 0.13996 
691 1 -0.0224314 0.0430303 -0.17072 0.177483 
421 1 0.0164508 0.0743771 -0.0225966 0.0794556 
12 1 -0.0897924 0.027686 -0.0681695 0.116087 
597 1 0.0626965 0.00164023 0.0678231 0.092377 
3617 2 0.155726 0.0496371 -0.076017 0.180258 
120 1 0.0321515 0.22329 0.0922233 0.243716 
769 1 -0.0645693 -0.09224 0.0301323 0.116556 
25 1 0.195057 0.0577915 -0.0579776 0.211538 
2142 1 0.0364961 0.0550721 -0.0209701 0.0693156 
3611 2 0.0466832 -0.0154731 0.171889 0.178786 
2140 1 0.100427 -0.05733 0.0258288 0.118488 
3828 2 0.0120573 0.12106 0.116445 0.168405 
2148 1 0.0170686 -0.0938507 0.0106311 0.0959808 
175 1 0.11482 -0.0775583 -0.0502547 0.147392 
2011 1 0.225088 0.0919721 0.0997391 0.262815 
75 1 -0.0969017 0.0945731 -0.0633815 0.149503 
547 1 -0.0262427 0.000355976 -0.158719 0.160875 
4316 2 -0.111671 0.0955369 -0.0412023 0.152628 
559 1 0.0282726 0.117189 -0.0494245 0.13029 
242 1 0.00499377 -0.0126155 0.191969 0.192448 
3510 2 -0.155853 0.00135733 0.22818 0.276329 
130 1 0.0732787 0.00148276 0.012285 0.0743162 
143 1 -0.0165715 0.0759005 0.00632497 0.0779455 
202 1 -0.13011 -0.121523 0.0228674 0.179498 
182 1 -0.0983238 0.0491885 0.100087 0.148676 
84 1 0.0190349 0.017997 -0.0441851 0.0513667 
3633 2 -0.0985507 -0.041834 -0.0821068 0.134922 
35 1 -0.145243 0.013467 0.154535 0.212504 
796 1 0.0300743 0.139124 -0.0490639 0.150556 
3612 2 0.0270598 0.0109941 0.0203695 0.0356093 
40 1 0.0319466 0.0667815 0.0307347 0.0801559 
4005 2 0.119328 -0.119586 0.119641 0.207012 
718 1 -0.100313 0.0141288 -0.0395148 0.108737 
134 1 0.0537721 0.0278686 0.0756227 0.096886 
511 1 -0.191327 -0.0261768 0.0380389 0.19682 
37 1 0.109595 -0.168198 -0.103329 0.225784 
757 1 -0.0284629 0.163869 0.0224393 0.16783 
3555 2 -0.0137243 0.093939 0.0898094 0.130685 
3481 2 0.0187274 -0.0505209 -0.0893697 0.104355 
135 1 -0.0844836 -0.000378491 -0.00641751 0.0847279 
369 1 0.0478093 -0.0170727 -0.00835339 0.0514488 
1915 1 0.0238374 0.12258 0.0822829 0.149548 
3462 2 -0.0224783 -0.106228 -0.149166 0.1845 
1914 1 -0.0651752 -0.0878179 -0.117211 0.160307 
3661 2 0.0496223 -0.119548 -0.039553 0.135346 
1871 1 -0.00799481 0.0495417 -0.00154094 0.0502062 
320 1 -0.107957 -0.121398 -0.0561233 0.171878 
582 1 -0.0614346 -0.147062 0.0477123 0.166367 
766 1 0.030575 0.0393538 -0.0953457 0.107584 
3552 2 0.0752822 0.0346089 -0.0605797 0.102641 
2290 1 0.0543183 0.102926 -0.00281572 0.116414 
1794 1 -0.0764214 0.165825 0.0157391 0.183265 
753 1 -0.029657 -0.0595642 0.00484819 0.0667153 
396 1 0.0884028 -0.000708144 0.141466 0.166818 
496 1 0.00669975 -0.0674537 -0.0702733 0.0976382 
480 1 -0.020472 -0.0865697 0.119314 0.148827 
253 1 0.128102 0.0139491 -0.0695499 0.14643 
4033 2 0.055886 -0.0637738 -0.0557525 0.101482 
347 1 -0.0872785 -0.0733004 -0.0765918 0.13732 
862 1 0.026594 -0.0397516 0.0676401 0.0828409 
586 1 -0.0535634 0.0227483 -0.0504859 0.0770412 
3671 2 -0.0757154 -0.00749205 -0.0627297 0.0986102 
782 1 0.075333 -0.0748262 -0.0212802 0.108291 
481 1 0.112899 -0.0334745 -0.0293041 0.121348 
392 1 -0.043323 -0.0632492 -0.0665775 0.101538 
333 1 0.00125048 -0.0844998 -0.0528722 0.0996857 
342 1 0.0242682 -0.0559225 -0.0962142 0.113901 
1179 1 0.0630251 -0.0816084 -0.105846 0.147768 
517 1 0.0507103 -0.0744286 -0.0356633 0.096866 
1824 1 0.0504234 -0.00046104 -0.0559274 0.0753034 
34 1 0.191375 -0.0531565 0.0735435 0.211798 
398 1 0.00148679 0.0164859 -0.0388969 0.0422725 
170 1 -0.00599776 -0.0350623 -0.0125744 0.0377287 
235 1 -0.00740822 -0.0366107 0.00148833 0.0373824 
3931 2 -0.198028 -0.0740186 0.0485088 0.216903 
274 1 -0.00540387 -0.0538324 -0.08787 0.10319 
30 1 -0.00189042 -0.0803844 -0.0174325 0.0822746 
1013 1 0.104838 -0.0303803 0.0532043 0.121428 
2066 1 0.0741426 -0.0194151 0.163851 0.18089 
1082 1 -0.0230932 -0.0934373 0.195663 0.218054 
1372 1 0.00670671 -0.00912398 0.078918 0.0797263 
878 1 -0.11633 -0.0411699 0.0463279 0.13181 
1265 1 0.0330279 -0.0113801 0.0126918 0.0371676 
601 1 -0.0172796 0.0190576 0.0121558 0.0284524 
540 1 -0.121121 -0.146521 -0.000285576 0.190102 
589 1 -0.00795106 0.0221359 0.184793 0.186284 
958 1 0.0815493 -0.0199602 0.107376 0.136302 
504 1 -0.0476967 0.0743182 -0.00665135 0.0885574 
1349 1 -0.188022 -0.0391069 0.0276348 0.194024 
9 1 -0.0153609 -0.115746 -0.0384934 0.122942 
149 1 -0.0589433 0.00809683 0.0134915 0.0610073 
163 1 -0.0202643 -0.277372 0.102501 0.296399 
3570 2 -0.0133419 -0.13565 -0.0778673 0.156979 
237 1 -0.0334818 0.0435252 0.0829211 0.0994554 
490 1 0.0705275 -0.141607 0.11189 0.193768 
50 1 0.0941456 0.00748469 0.0792346 0.123278 
3652 2 -0.0755229 -0.0781009 -0.0401309 0.115819 
3823 2 0.0657662 0.0181327 -0.165962 0.179436 
902 1 -0.0590568 0.0225639 0.0822201 0.103716 
3574 2 0.037287 -0.0076449 0.027341 0.0468647 
770 1 -0.0100617 0.016497 -0.0986578 0.100532 
154 1 -0.0345308 -0.0718744 -0.0215187 0.0825915 
116 1 0.101338 -0.0470069 0.161751 0.196577 
710 1 -0.040457 -0.130181 -0.0281126 0.139191 
1956 1 -0.0598056 -0.0397237 0.0384423 0.0814401 
1810 1 -0.110378 0.00804594 -0.0252272 0.113509 
2072 1 -0.0339363 -0.0018876 -0.0815774 0.0883748 
1649 1 -0.0720976 -0.0278961 -0.102184 0.128132 
186 1 -0.149739 0.0359759 0.0423155 0.159708 
432 1 -0.0953486 0.083797 -0.0156145 0.127895 
2495 1 -0.0924654 -0.168851 -0.0132726 0.192968 
3896 2 -0.0579359 0.0277152 -0.0919015 0.112119 
1071 1 -0.0604787 -0.0224477 0.0568233 0.0859678 
913 1 0.0384905 0.0443788 0.0105535 0.0596857 
1068 1 -0.124593 0.0854464 -0.125269 0.196257 
265 1 -0.0806567 -0.0346432 -0.111653 0.142028 
1287 1 0.0287654 0.0152957 0.0421001 0.0532337 
3799 2 0.148082 -0.117463 -0.117147 0.222372 
554 1 0.175343 -0.0617883 0.0182549 0.186805 
1414 1 -0.0328493 0.0378632 -0.0502555 0.0709811 
213 1 -0.0116966 0.0302126 0.0507261 0.0601893 
341 1 -0.0679699 -0.00298251 0.0436329 0.0808247 
3682 2 0.037984 0.0908925 -0.0317661 0.103505 
754 1 -0.00230709 0.0372228 0.0261459 0.0455464 
112 1 -0.0304516 0.0824846 -0.00591166 0.0881246 
1041 1 0.000842275 0.00964334 -0.0545865 0.0554381 
119 1 0.059814 0.0844545 -0.0628801 0.121096 
995 1 -0.0350095 -0.0330284 -0.0518152 0.0707203 
415 1 -0.0638919 0.00827087 -0.0624955 0.0897567 
4128 2 0.0272158 -0.0705199 0.224735 0.237107 
8 1 0.0265912 0.0368521 -0.0139574 0.0475393 
94 1 0.0346048 0.0824392 -0.0454271 0.100286 
48 1 0.0713386 -0.00984924 0.126355 0.145436 
3866 2 0.0408687 0.0315656 -0.0205429 0.0555756 
52 1 0.0215676 -0.20581 0.0384612 0.210481 
3490 2 0.00448364 0.0200928 -0.139599 0.141109 
3072 1 0.0266898 -0.122347 0.0311281 0.129036 
3002 1 0.187309 0.0553739 -0.035107 0.198452 
92 1 0.0308602 0.0430854 0.042813 0.0681297 
335 1 0.0643165 0.027191 -0.0405391 0.0807427 
1932 1 0.0825419 -0.114121 -0.0723583 0.158343 
1114 1 0.095532 -0.083199 0.0384643 0.132393 
1821 1 -0.114734 -0.0581646 -0.024678 0.130981 
1922 1 -0.0172608 -0.0778739 0.0521548 0.0953017 
451 1 -0.106405 -0.0536059 0.000498295 0.119147 
3960 2 -0.0419653 -0.048594 0.0842912 0.10596 
100 1 -0.0829479 -0.0887785 -0.000679551 0.121501 
1180 1 0.0617053 -0.0167258 -0.10032 0.118959 
165 1 0.0542231 0.003917 -0.0408478 0.0680002 
388 1 -0.0393145 -0.00998183 -0.115844 0.12274 
3742 2 -0.0582545 -0.0697508 0.0362047 0.0978241 
323 1 -0.0873825 0.0520573 0.0682214 0.122474 
288 1 -0.122808 0.0369455 -0.0471002 0.136621 
3942 2 -0.0822408 0.120012 0.105314 0.179604 
66 1 0.0279258 0.0801885 0.129179 0.154588 
340 1 0.135986 0.0824106 -0.0378776 0.163458 
138 1 -0.0247409 0.0253173 0.0877658 0.0946357 
318 1 0.0852926 0.0376295 -0.170936 0.194705 
879 1 -0.108571 0.0471068 -0.0440156 0.12627 
3808 2 0.0746513 0.184069 -0.0792975 0.213874 
834 1 0.145315 0.0355843 0.0118545 0.150078 
18 1 -0.0124095 -0.0676387 -0.156988 0.171389 
614 1 -0.0134117 0.139862 -0.121299 0.18562 
3679 2 0.164108 -0.0972597 -0.122447 0.226681 
407 1 -0.0157868 0.127022 -0.097492 0.160899 
360 1 0.0491399 0.0225141 -0.0379734 0.0660575 
2885 1 -0.0978668 -0.0170483 0.0177946 0.100922 
3526 2 -0.0903912 -0.251781 -0.0109611 0.26774 
310 1 -0.0979739 -0.0339848 -0.0771419 0.129247 
326 1 0.0520105 -0.0474435 0.0662791 0.0966897 
227 1 -0.047278 -0.0912647 -0.0914393 0.13757 
2068 1 -0.0029997 0.0169017 -0.174535 0.175377 
3872 2 -0.0514303 0.0479435 -0.0579471 0.0911127 
456 1 0.125602 -0.0168477 0.0722155 0.145859 
279 1 0.122027 0.0554372 0.178616 0.223311 
305 1 -0.0248836 -0.0117339 0.100149 0.103859 
49 1 0.0272901 -0.0345053 -0.0159416 0.0467921 
1 1 0.057468 -0.0388738 0.11301 0.132608 
3512 2 0.0737042 -0.228731 -0.00962514 0.240506 
11 1 -0.0566842 -0.134056 -0.046889 0.152914 
189 1 -0.178008 0.0323044 -0.0846049 0.199721 
2271 1 -0.0534778 -0.121858 -0.122804 0.18108 
319 1 -0.210535 -0.0691293 0.0393624 0.225062 
3566 2 0.0911378 -0.0055653 -0.0393529 0.099427 
71 1 0.0219027 0.00174466 0.021513 0.0307503 
1560 1 -0.10855 0.0780094 0.0694908 0.150657 
190 1 -0.0754442 -0.0335835 0.137818 0.160666 
123 1 0.0382675 -0.000270046 0.0733481 0.082731 
27 1 0.0148475 -0.0518237 0.0912738 0.106005 
162 1 -0.0373656 0.0591454 -0.00538055 0.0701663 
255 1 -0.154266 -0.0402821 0.0225366 0.161023 
304 1 0.00660417 0.0313508 -0.10084 0.105807 
321 1 0.0227252 -0.0446478 0.129463 0.138818 
682 1 -0.0672686 0.00533236 -0.0223019 0.0710695 
3469 2 0.0270932 0.00871609 -0.100134 0.1041 
3539 2 -0.0106188 0.00454678 0.0866627 0.0874291 
128 1 -0.0228548 -0.0514145 -0.0905212 0.106583 
3562 2 0.103104 0.00329591 0.0691006 0.124162 
560 1 -0.206247 -0.0699503 -0.0628125 0.226663 
212 1 0.0664276 0.0044149 -0.0399697 0.0776511 
355 1 0.0492025 0.0448713 0.0697098 0.0964042 
156 1 0.0280789 0.0572635 0.0542094 0.083703 
3620 2 0.119908 -0.0379 0.00368295 0.125809 
1823 1 0.139759 -0.190299 -0.0703403 0.246362 
308 1 0.0502558 -0.0234575 -0.0703518 0.0895839 
2599 1 -0.0784392 0.0628036 0.0861959 0.132389 
327 1 0.114354 0.0964608 0.066052 0.163537 
137 1 0.072359 0.0180145 -0.0298057 0.0803039 
2334 1 0.0155933 0.0053479 0.01135 0.0200143 
3698 2 -0.0164595 0.0168835 -0.0819693 0.0852932 
555 1 -0.0352951 -0.0132074 -0.0437443 0.0577385 
4178 2 0.0192501 0.0146746 -0.0360064 0.0433864 
290 1 0.0622145 -0.0147476 -0.11705 0.133375 
284 1 -0.00762698 0.0826496 0.0377336 0.0911754 
3543 2 -0.021842 -0.103715 0.00315996 0.106037 
366 1 0.0188256 -0.0123149 0.153299 0.154941 
55 1 0.0463348 0.0284607 0.0463319 0.0714393 
273 1 0.0124086 0.0341326 -0.11391 0.11956 
3468 2 0.049185 0.0229306 0.182509 0.190406 
316 1 0.123374 0.0288947 0.172764 0.214251 
81 1 -0.0375391 -0.0212014 -0.00867813 0.0439773 
322 1 0.0394479 -0.0197987 0.0490488 0.0659842 
73 1 -0.0293756 0.073254 -0.0519735 0.0945004 
239 1 0.0719255 0.0168267 -0.0324044 0.0806626 
734 1 -0.0153977 -0.126387 -0.0121686 0.127901 
384 1 -0.0466321 -0.100879 -0.0956441 0.146625 
3476 2 0.060462 0.0814222 0.0281482 0.10525 
311 1 0.0300758 -0.0954545 -0.0239127 0.102898 
1938 1 0.0553067 -0.00936913 -0.00244045 0.0561478 
139 1 0.0777851 0.104819 -0.0771608 0.151629 
727 1 0.101928 -0.17333 -0.105671 0.227154 
1885 1 0.0679352 0.0808832 0.0704274 0.126954 
2184 1 0.19839 0.0136961 -0.0257474 0.200522 
3706 2 0.0517044 -0.219424 -0.209988 0.308083 
2494 1 -0.168237 0.0121182 -0.0938976 0.193047 
2091 1 0.00533652 -0.012683 -0.0272704 0.0305452 
281 1 0.0371756 0.116375 0.171755 0.210772 
863 1 -0.057063 0.10132 0.0273712 0.119462 
176 1 -0.0697598 0.0512621 -0.0976487 0.130497 
3710 2 0.0280934 0.0392742 -0.0585678 0.0759071 
3572 2 -0.0632279 -0.0469569 -0.0920044 0.12111 
4197 2 0.0724074 0.00271877 -0.164238 0.179511 
343 1 -0.0255652 -0.0016782 -0.0881884 0.0918346 
282 1 0.0361086 0.00329978 -0.0747794 0.0831064 
1038 1 0.0339598 0.0182486 0.0786487 0.0875894 
408 1 0.0997369 -0.0598764 0.0502883 0.126734 
412 1 0.0933179 0.0188592 0.106226 0.142646 
585 1 -0.0141565 -0.0515949 -0.0467148 0.0710262 
3609 2 0.00543031 -0.140345 0.0809342 0.1621 
719 1 0.0154889 -0.065343 -0.00394917 0.0672696 
608 1 0.109752 0.116938 0.103025 0.190615 
1047 1 -0.0639055 -0.0678496 -0.0460213 0.103949 
3573 2 0.0872969 0.0599853 -0.056016 0.11982 
751 1 -0.00362459 -0.0909008 -0.0596937 0.108809 
259 1 0.0222215 0.00825174 -0.056862 0.061605 
245 1 -0.0501664 0.0432729 -0.0190026 0.0689225 
613 1 0.0144413 -0.13235 0.0537976 0.143594 
4275 2 -0.0291626 -0.0989483 -0.226591 0.248967 
4296 2 -0.0416859 0.0346314 -0.00807524 0.0547929 
272 1 -0.111001 -0.141666 -0.0532211 0.187678 
4239 2 -0.184891 -0.0660719 -0.0550234 0.203907 
88 1 0.0237114 0.0929833 0.0577906 0.112017 
4 1 0.078904 -0.0528437 -0.0225822 0.0976128 
361 1 0.144417 0.0270841 -0.114704 0.186405 
358 1 -0.0357206 0.0859866 0.0976717 0.134942 
194 1 -0.00371903 -0.0182532 -0.0705406 0.0729588 
2373 1 0.057508 -0.00991137 -0.0647647 0.0871773 
1982 1 0.0788889 -0.00599603 0.112053 0.137169 
3953 2 0.0539952 0.0633703 0.0734039 0.110993 
414 1 0.0327647 0.0666181 -0.190446 0.204405 
2036 1 -0.134189 0.0953785 -0.00512737 0.164712 
3186 1 0.0422998 -0.0132642 -0.0512644 0.0677735 
177 1 0.0824639 0.0351661 0.00243238 0.089682 
1962 1 -0.0376407 0.142894 0.119042 0.189754 
706 1 0.021538 0.0643666 0.00217236 0.0679092 
1544 1 0.0145036 -0.162354 0.0262814 0.165106 
820 1 0.0595323 0.0827199 0.154084 0.18474 
4160 2 0.00408808 0.0766616 0.0378523 0.085595 
19 1 -0.0664115 0.116391 -0.0462742 0.14177 
3624 2 -0.0734467 0.0521587 -0.0492128 0.102649 
115 1 0.0303586 0.0268811 -0.144777 0.150349 
1102 1 -0.0698414 0.018085 0.064171 0.0965546 
106 1 -0.0226318 0.0692297 -0.0077825 0.0732497 
649 1 0.0249617 0.0508204 -0.00535293 0.0568723 
113 1 0.0154422 -0.122557 0.0275332 0.126557 
1150 1 0.034784 -0.00832011 -0.0181308 0.0400983 
620 1 0.0196763 -0.0931552 0.05831 0.111647 
739 1 0.0484517 -0.013586 -0.164113 0.171654 
2412 1 -0.0626066 -0.0165268 0.0193786 0.0675889 
3746 2 0.0769615 -0.00229493 -0.229854 0.242407 
1225 1 -0.00943126 -0.0226023 0.206204 0.207653 
241 1 0.131532 -0.0726371 -0.015682 0.151072 
83 1 0.065667 -0.0626266 -0.00602017 0.0909422 
1006 1 0.0725403 0.0157225 -0.0222146 0.0774776 
4046 2 -0.0647553 -0.0660504 -0.0689388 0.115362 
96 1 -0.0639529 -0.163322 0.0774312 0.191728 
411 1 0.137714 0.0902037 0.0261456 0.16669 
2454 1 -0.00459252 -0.0457158 0.0540907 0.0709706 
404 1 0.0721413 0.0411789 0.00860643 0.0835113 
226 1 0.0380576 -0.0386809 0.0195027 0.0576623 
534 1 0.0423685 -0.0407566 0.140694 0.152483 
3538 2 -0.0889773 0.0236971 -0.0349638 0.0984936 
246 1 0.073222 0.0577822 -0.049162 0.105438 
2229 1 -0.14106 -0.0676041 -0.082312 0.176759 
146 1 0.0521348 -0.172503 -0.0865219 0.199904 
3608 2 -0.0984379 -0.0323674 0.0542666 0.116972 
503 1 0.110736 -0.062424 -0.0522385 0.137434 
562 1 -0.0718548 -0.140878 -0.0448996 0.164395 
505 1 0.112117 -0.131152 0.0212593 0.173848 
1430 1 -0.0321903 -0.0946124 -0.0715961 0.122938 
97 1 -0.175263 0.0750975 -0.0392836 0.19468 
1723 1 -0.0263881 -0.0554463 -0.0831562 0.103371 
3561 2 -0.00805355 0.187112 -0.0430254 0.192164 
20 1 -0.0582601 0.0254469 0.0110739 0.0645323 
263 1 -0.0644252 0.16662 -0.0184161 0.179588 
1034 1 -0.0807354 0.055102 0.00574604 0.0979156 
353 1 -0.00173398 -0.109861 0.153249 0.188567 
1260 1 0.0224667 0.112456 -0.0901112 0.145846 
998 1 0.0157964 0.0888089 -0.0498359 0.103054 
36 1 0.0290169 -0.168525 -0.0941318 0.195201 
38 1 0.0338636 0.0588314 -0.0825744 0.106894 
3130 1 0.0525845 0.0452865 -0.0209409 0.0724881 
1766 1 -0.059551 -0.0674602 0.00456353 0.0901001 
1973 1 0.119606 0.134607 0.105141 0.208517 
307 1 0.107959 -0.0488942 0.0585452 0.132187 
2714 1 0.08725 0.0212077 -0.0534359 0.104488 
28 1 0.0035527 0.0955605 0.00469053 0.0957415 
3011 1 0.0385368 0.0364947 0.01319 0.0546893 
410 1 0.0579045 -0.174098 0.0522931 0.190782 
693 1 0.128955 0.0555846 0.132578 0.193122 
367 1 0.0120893 0.0085871 -0.0192535 0.024302 
735 1 0.16469 0.0150477 0.0430579 0.170889 
600 1 0.0356296 0.00110561 0.0652666 0.0743668 
3590 2 0.0983896 0.133767 0.103939 0.195902 
3636 2 0.0427569 -0.0699495 -0.039009 0.0907898 
26 1 -0.10504 -0.0130294 0.110274 0.152851 
1199 1 0.0882592 0.0949964 -0.0620918 0.143769 
459 1 -0.13272 -0.0092907 -0.0104017 0.133451 
3645 2 0.0807555 0.0979305 0.0380833 0.132522 
574 1 0.0478645 -0.0524659 0.142367 0.159098 
666 1 0.0746652 -0.228343 0.122604 0.269717 
161 1 -0.0744876 -0.0132578 0.201766 0.215485 
309 1 0.0934717 0.0504744 -0.0134541 0.107078 
365 1 0.0782496 -0.106946 0.090464 0.16045 
191 1 -0.0732457 0.0498195 -0.0125583 0.0894686 
2775 1 0.0950228 -0.104697 0.0399954 0.146937 
1030 1 0.0306648 -0.18519 0.0504469 0.194372 
580 1 -0.00411715 -0.0403357 0.0263082 0.0483326 
1937 1 0.0114849 0.0886077 -0.0570077 0.105986 
2054 1 0.0146879 -0.0911203 0.00443078 0.0924028 
2064 1 0.0106111 0.0338772 0.0597235 0.0694777 
529 1 0.0311872 -0.00887998 -0.0423885 0.0533693 
402 1 -0.0513604 0.0606678 -0.0275128 0.0841155 
3582 2 0.0798842 -0.0456073 -0.0935725 0.131215 
124 1 -0.13744 -0.00319962 0.0205835 0.13901 
744 1 0.115649 -0.025026 0.0635409 0.134307 
185 1 0.0518354 -0.0684348 0.103942 0.134812 
315 1 0.0772861 -0.0312668 0.0141336 0.0845607 
765 1 0.0819203 -0.0531362 0.0580999 0.113622 
140 1 -0.0510013 -0.00327015 -0.135502 0.144819 
59 1 0.106037 -0.0891063 0.0838702 0.161919 
54 1 0.0797508 0.0776305 0.0459232 0.120398 
780 1 0.128359 0.0358693 0.00943252 0.13361 
3506 2 -0.0105597 0.0907623 -0.124458 0.154399 
43 1 0.0663542 0.043441 0.164736 0.182833 
334 1 -0.132087 -0.0765072 0.114988 0.191109 
99 1 0.100903 0.110833 0.0979955 0.179077 
1189 1 -0.12509 0.0251873 -0.164485 0.208176 
201 1 -0.0413845 0.0236381 -0.0180759 0.0509723 
380 1 -0.010789 0.0942318 -0.0826005 0.125773 
1777 1 -0.045667 -0.0130666 -0.0699281 0.0845349 
1805 1 -0.122501 -0.0172016 0.147041 0.192155 
2597 1 0.147379 0.045306 0.0677263 0.168404 
2484 1 0.184931 -0.0503204 0.0764043 0.206323 
3918 2 0.0223279 0.197133 0.102601 0.223354 
89 1 -0.113057 0.0222683 0.0370319 0.121034 
300 1 -0.0740451 -0.0226097 0.0403421 0.0873004 
712 1 0.0386756 0.147867 -0.0963968 0.180701 
3836 2 -0.0547887 0.133531 -0.0926703 0.171523 
268 1 -0.0353475 0.029118 0.0971542 0.107407 
788 1 0.0163755 0.0886933 -0.0410542 0.0990964 
4091 2 -0.0478791 0.101151 -0.0140105 0.112784 
371 1 0.0200569 -0.0541287 0.0928015 0.10929 
3505 2 0.152897 0.0170427 -0.0183949 0.15494 
266 1 0.0957107 -0.00122193 -0.103844 0.141229 
3571 2 -0.0233912 -0.0785871 0.0775974 0.112891 
637 1 -0.0442734 -0.00570755 -0.0781453 0.0899967 
157 1 -0.083416 -0.0520267 -0.0043885 0.0984087 
257 1 -0.0631112 0.0102448 0.0730331 0.0970661 
571 1 0.0316797 0.00956093 0.0830646 0.0894133 
665 1 -0.120159 -0.0827056 0.0944689 0.173789 
448 1 -0.196108 -0.159169 -0.00416137 0.252607 
827 1 0.0604712 0.0339196 0.0584486 0.0906838 
3475 2 0.0547692 0.00396438 0.0321885 0.0636512 
267 1 0.103286 0.0954008 -0.180257 0.228608 
373 1 0.0920375 0.0100175 0.0209075 0.0949125 
247 1 0.0311968 0.0136696 -0.0841855 0.0908146 
107 1 0.0649591 0.0847984 -0.0627252 0.123875 
3606 2 -0.0268169 0.146238 -0.263003 0.302117 
3471 2 0.0639705 0.00610306 0.0577463 0.0863951 
675 1 -0.086717 -0.00966793 -0.128598 0.155405 
434 1 0.102495 0.0632963 -0.0689968 0.138824 
159 1 -0.0404992 0.0760283 -0.0916333 0.125766 
32 1 0.0451116 0.143081 -0.0544866 0.159612 
394 1 -0.027555 0.00567647 0.0810433 0.0857876 
3579 2 0.105034 0.0390227 -0.196917 0.226564 
260 1 0.0692522 -0.0144729 0.0742093 0.10253 
3972 2 -0.0393907 0.0539666 0.0766286 0.101666 
1801 1 -0.0475522 0.0681482 -0.013421 0.0841755 
2122 1 0.0573368 0.0477106 0.202183 0.215503 
1966 1 0.0936994 -0.0276548 -0.0310512 0.102511 
291 1 -0.0223821 -0.0142132 0.0745981 0.0791697 
2047 1 0.077888 0.0317915 -0.0445867 0.0952114 
1899 1 0.0650748 0.0748932 0.00757891 0.0995046 
622 1 0.0422537 0.211152 -0.0257044 0.216867 
1993 1 0.0227064 -0.00506023 0.0377605 0.0443513 
2187 1 -0.0534397 0.0581866 -0.0941686 0.122919 
4318 2 0.0972399 0.0302985 0.0875825 0.134329 
44 1 0.0833821 0.0649085 0.0801123 0.132603 
824 1 -0.000913363 -0.0212026 0.0894268 0.0919105 
1282 1 0.0598395 0.0442117 0.073395 0.10451 
819 1 0.0974048 0.131325 0.0342855 0.167061 
773 1 -0.113232 -0.149649 0.0706984 0.200536 
270 1 -0.0505649 -0.0520293 -0.0454937 0.0856361 
14 1 -0.171677 -0.064991 0.022073 0.18489 
3540 2 0.0519849 -0.177299 0.0684794 0.197045 
997 1 0.0410453 0.124364 -0.134005 0.187372 
164 1 -0.00559753 -0.0088526 0.0650207 0.0658589 
234 1 -0.0183927 -0.00615607 0.0169318 0.0257464 
1125 1 -0.00736236 -0.0836622 -0.0925311 0.124962 
3985 2 0.0540077 0.061406 0.0545141 0.0982818 
328 1 0.0247743 0.0194356 -0.0144086 0.0346283 
3474 2 0.0917815 0.00367896 -0.0464492 0.102932 
543 1 0.0229123 -0.0572763 -0.00451562 0.0618542 
293 1 0.0684563 -0.0896962 0.118205 0.163414 
3458 2 0.128169 0.00795876 0.0987289 0.161982 
390 1 -0.0359182 -0.000638367 -0.129244 0.134144 
2169 1 0.116138 0.0235274 -0.102698 0.156807 
1786 1 0.107715 -0.0452682 0.0381621 0.122915 
1478 1 -0.0453467 -0.0122117 0.0290895 0.0552417 
87 1 0.0174437 -0.0238281 -0.0251135 0.0387654 
4090 2 -0.101301 -0.0506381 0.00336404 0.113303 
142 1 0.0262558 0.0238526 0.00822179 0.0364131 
1650 1 -0.077794 -0.124056 0.0147708 0.147173 
3626 2 0.161381 0.102196 -0.0864289 0.209661 
153 1 0.121492 -0.0574783 0.00769088 0.134622 
374 1 0.0160079 -0.0886168 -0.144307 0.170099 
602 1 0.00186299 0.014172 -0.147171 0.147863 
1277 1 -0.0314243 0.046675 0.0234379 0.0609539 
1370 1 0.0379978 -0.046896 0.0533397 0.0805493 
221 1 -0.0702467 0.0247067 -0.0668316 0.100057 
604 1 -0.0705031 0.00125604 0.0777194 0.104941 
1161 1 0.0362952 -0.0464166 0.118277 0.132141 
1718 1 -0.0162214 0.0179388 -0.0643288 0.0687251 
1175 1 0.0352676 -0.104751 0.0371172 0.116595 
178 1 -0.106583 -0.285663 -0.00293336 0.304913 
295 1 -0.171394 -0.101282 0.00253685 0.199099 
1472 1 -0.0432796 -0.04454 -0.0719698 0.095061 
4159 2 -0.0073264 -0.0643796 -0.0143341 0.0663617 
3467 2 0.0422397 0.0537202 -0.0969002 0.118574 
3531 2 -0.0899664 -0.0494538 0.127631 0.163796 
2720 1 0.00282974 -0.00223889 -0.0798041 0.0798856 
1851 1 -0.0119778 0.00472743 -0.00321741 0.0132728 
732 1 0.0218784 -0.112047 0.000922295 0.114166 
3878 2 0.0515954 0.144442 -0.0409647 0.158756 
3185 1 -0.130722 -0.0158115 -0.0404347 0.137743 
110 1 -0.126022 0.00332027 -0.0119605 0.126632 
2963 1 0.00162433 0.0812487 -0.0247619 0.0849537 
2608 1 0.0182858 -0.00576511 0.052296 0.0556999 
4009 2 -0.0785505 0.123479 0.0311309 0.149621 
3301 1 0.00918571 0.038474 0.139382 0.144886 
3759 2 -0.0557444 -0.0259134 -0.0236221 0.0658555 
4171 2 -0.113434 0.0147293 0.117917 0.164282 
2118 1 -0.0227485 0.0167209 -0.0967512 0.100786 
1742 1 0.02795 -0.0115714 0.0248643 0.0391577 
2265 1 0.105282 0.118908 0.0469899 0.165625 
761 1 0.0447333 -0.0337031 0.0320148 0.0645129 
642 1 0.0567276 -0.267807 -0.0205085 0.274516 
3366 1 -0.0498164 -0.0108832 0.0366687 0.062807 
144 1 0.0816948 0.0309209 -0.0777076 0.116913 
681 1 -0.0308976 0.00472331 -0.0184725 0.0363071 
1666 1 -0.0103199 -0.0438204 -0.0743717 0.086936 
183 1 -0.0658954 -0.0953756 -0.0471193 0.125136 
694 1 -0.0786378 0.0461903 0.0765942 0.119097 
444 1 -0.065326 0.0124125 -0.119211 0.136502 
817 1 0.0776647 -0.0901667 0.0481942 0.128392 
869 1 -0.0228996 -0.132346 0.126761 0.184684 
920 1 -0.0972408 -0.163599 0.14349 0.238348 
53 1 0.122662 0.0273117 0.0389522 0.131565 
1450 1 -0.292034 0.0130136 -0.073023 0.301306 
57 1 -0.0573038 -0.151662 0.0417392 0.167414 
3545 2 -0.0799388 0.155009 -0.0626907 0.185332 
1579 1 -0.0111231 -0.0355184 0.0191497 0.0418568 
51 1 0.0643428 -0.0905251 0.00907193 0.111432 
4187 2 -0.0214738 -0.0576235 -0.141048 0.153871 
1590 1 0.0554522 -0.00519229 -0.0128934 0.0571677 
2005 1 0.119868 -0.13755 0.140753 0.230434 
736 1 -0.15312 0.0119813 -0.047276 0.1607 
363 1 0.157529 0.0193578 0.0229613 0.160366 
2538 1 0.0927865 -0.115688 -0.0523019 0.157253 
357 1 -0.0322176 0.0254495 -0.0534349 0.0673865 
3849 2 0.193991 -0.079384 -0.183919 0.278856 
4102 2 0.0699 -0.147555 0.0472944 0.169986 
1032 1 0.0923271 0.0675819 0.0842653 0.142099 
78 1 -0.00497492 0.0418617 -0.00177081 0.0421935 
2304 1 0.0807909 -0.174406 0.0521856 0.199168 
564 1 0.275071 -0.0695154 0.0888737 0.297313 
1476 1 0.268991 0.10813 0.0272977 0.291193 
872 1 -0.0111789 0.0179832 0.0274547 0.0346716 
475 1 0.0734153 0.0347674 -0.0129724 0.0822609 
4119 2 0.271979 -0.140231 -0.0811295 0.316574 
576 1 -0.0335692 0.13081 0.0884284 0.161424 
507 1 0.0282282 -0.199638 0.0384599 0.205259 
3597 2 -0.0371754 0.0250382 0.0499462 0.0671085 
248 1 0.0213946 -0.078415 -0.0638896 0.103385 
539 1 -0.0497379 -0.0685652 -0.00534031 0.0848738 
63 1 0.0577156 -0.0583731 0.150984 0.171856 
854 1 -0.0808078 -0.0473061 0.0250122 0.0969195 
668 1 0.068794 -0.129197 -0.0483082 0.154136 
385 1 -0.0995112 -0.314979 0.155968 0.365295 
752 1 -0.0222095 0.030768 -0.0438518 0.0579906 
3736 2 -0.0755528 -0.216774 0.10124 0.250896 
1505 1 0.146453 0.151697 0.173782 0.273241 
254 1 -0.154491 -0.112011 -0.0163386 0.191522 
3637 2 -0.0420922 -0.107274 -0.0739704 0.136935 
731 1 -0.0493174 -0.135203 0.0419063 0.149894 
2048 1 0.112965 0.0629017 0.0652602 0.144833 
610 1 -0.213831 0.0270614 -0.126929 0.250134 
292 1 -0.132989 0.0300831 -0.0521634 0.145986 
313 1 -0.0539226 -0.0125351 0.00215889 0.0554025 
2133 1 -0.0535491 -0.0694405 -0.0460282 0.0990357 
646 1 -0.0745872 -0.00610924 -0.0956104 0.121416 
271 1 0.0271346 0.128146 0.0379399 0.136371 
584 1 -0.0502052 0.130913 -0.0390783 0.145554 
3649 2 -0.0956009 -0.0475805 0.0859627 0.137088 
655 1 0.00613899 -0.0912379 0.185132 0.206485 
779 1 -0.132811 -0.096649 0.0781894 0.181915 
621 1 -0.127598 0.0853542 -0.0125363 0.154025 
16 1 -0.0264748 -0.0813912 0.0784607 0.11611 
3635 2 -0.115854 -0.251407 0.104556 0.295904 
790 1 0.0979769 -0.00525034 0.136171 0.167838 
17 1 -0.00263105 -0.0444753 0.0916678 0.101921 
435 1 -0.0853358 0.127901 0.0657964 0.167243 
763 1 -0.0138789 0.0886268 0.0826166 0.121954 
195 1 0.0113557 0.161676 -0.147002 0.218809 
3650 2 0.0410082 0.155543 -0.115362 0.197949 
324 1 0.098044 -0.051402 -0.144042 0.181667 