ITEM: TIMESTEP
28
ITEM: NUMBER OF ATOMS
4320
ITEM: BOX BOUNDS pp pp pp
0.0000000000000000e+00 1.9309999999999999e+01
0.0000000000000000e+00 1.9309999999999999e+01
0.0000000000000000e+00 9.6549999999999994e+00
ITEM: ATOMS id type c_displacement[1] c_displacement[2] c_displacement[3] c_displacement[4] 
4012 2 0.0034245 -0.0458094 0.00214655 0.0459873 
2361 1 -0.0122545 -0.0052549 -0.0326908 0.0353055 
79 1 -0.046244 -0.0593047 0.0292014 0.0806738 
781 1 0.0513213 -0.00945058 0.0128162 0.0537349 
461 1 -0.0107677 -0.0199471 -0.0205229 0.0305781 
3704 2 -0.0123875 -0.0410171 0.0264134 0.0503341 
629 1 -0.04185 0.0144415 0.0299976 0.0534775 
1571 1 0.00294115 0.0106231 -0.0258511 0.028103 
58 1 0.085949 0.00818179 0.12354 0.150719 
2372 1 -0.0477702 -0.0437542 -0.0194317 0.0676315 
372 1 -0.00765547 0.00811012 -0.0202524 0.0231202 
3504 2 0.00275481 -0.0627662 0.0263153 0.0681152 
4130 2 -0.0144991 -0.0195701 -0.034181 0.0419709 
1262 1 0.0260127 0.0724372 -0.0644995 0.100419 
907 1 -0.0591792 -0.0443203 -0.103888 0.127512 
3659 2 0.0374652 0.124771 -0.0680978 0.146999 
1298 1 0.0658 0.0390865 -0.0624027 0.0987496 
1716 1 0.00268596 0.0841481 -0.0396513 0.093061 
1182 1 -0.00354304 0.00581882 0.0154117 0.0168503 
683 1 -0.000272217 -0.0209004 0.0391111 0.0443461 
1958 1 0.0350513 -0.0637125 0.0487724 0.0875592 
1554 1 0.00252596 -0.0584711 -0.0374751 0.0694955 
1037 1 -0.0325822 -0.136627 0.0160528 0.141372 
749 1 -0.0796495 -0.0279099 0.0344188 0.0911463 
3628 2 0.0564389 0.0417485 0.034176 0.0780787 
946 1 -0.0286938 0.00901665 -0.0402895 0.050278 
2232 1 0.0321484 0.00455371 -0.0639101 0.0716851 
7 1 0.0211365 -0.00163411 -5.213e-05 0.0211997 
501 1 0.0251065 0.0912624 -0.0710027 0.118324 
179 1 -0.0168595 -0.0180042 -0.0858457 0.089319 
714 1 -0.0165692 -0.0321632 0.0965791 0.103134 
4166 2 0.00706933 -0.0380558 -0.0463631 0.0603966 
276 1 -0.0257192 0.040483 0.0599894 0.0768055 
767 1 -0.0534132 -0.0129084 0.0609987 0.0821002 
3890 2 -0.110173 -0.027692 -0.066517 0.131641 
6 1 -0.00685822 0.0666352 0.00370076 0.0670894 
2086 1 -0.0122618 -0.00265171 0.0385277 0.0405187 
224 1 -0.00282818 -0.0138543 -0.000161533 0.0141409 
3660 2 0.0364768 0.0374114 0.0131496 0.0538803 
596 1 -0.0494697 -0.00953697 -0.0247592 0.0561358 
1214 1 -0.00565373 -0.039563 -0.0261296 0.0477488 
3686 2 0.0349212 0.0261365 0.00643424 0.0440909 
427 1 -0.0407227 0.0619387 0.054536 0.0920267 
350 1 0.00503379 0.0466042 0.0182582 0.0503056 
85 1 -0.0270606 -0.0122021 -0.0107583 0.0315739 
598 1 -0.0345735 -0.0113833 0.0858805 0.0932757 
3554 2 0.0014328 -0.0201721 -0.0209876 0.0291453 
29 1 -0.0154343 0.0518521 0.0353486 0.0646249 
464 1 -0.034542 0.0251996 -0.023453 0.0487669 
3619 2 -0.018986 0.0259217 0.0572037 0.0656099 
12 1 0.0602026 -0.140926 0.05354 0.16233 
364 1 -0.0730639 0.0347996 -0.041026 0.090733 
1849 1 -0.0904119 -0.0357086 0.0362731 0.103755 
3663 2 -0.0798061 0.0344661 -0.0657473 0.108994 
3517 2 0.0330479 0.0140598 0.0542238 0.0650389 
25 1 0.0839921 -0.0320616 -0.0159354 0.0913047 
4163 2 -0.0189638 0.0222838 -0.0132177 0.0321077 
399 1 -0.00166715 0.00719472 -0.0126807 0.0146746 
4265 2 -0.0231114 0.0497554 0.0122315 0.0562081 
527 1 -0.0149356 -0.00877752 -0.0240659 0.0296527 
200 1 0.0583151 0.0168318 0.0227538 0.0648205 
1951 1 0.0777681 0.0508421 0.0216734 0.0954072 
644 1 0.031318 -0.0335428 0.0498069 0.0677249 
193 1 -0.00314468 0.068852 -0.0214618 0.0721879 
550 1 -0.00297289 -0.0270865 -0.0120933 0.0298122 
69 1 -0.00819352 -0.0396989 0.0288058 0.0497284 
842 1 -0.0435356 0.0311072 -0.0786442 0.0951206 
578 1 -0.046 0.0296909 -0.00856894 0.0554164 
172 1 0.00404074 -0.0741189 0.018878 0.0765919 
381 1 -0.0109207 0.0663999 -0.0663358 0.0944915 
3524 2 0.0521902 -0.0708393 0.0780235 0.1176 
688 1 -0.0343554 0.060015 -0.000735576 0.0691566 
3651 2 -0.0100853 0.0446078 0.00446283 0.0459509 
2367 1 0.0232799 0.021586 -0.00644981 0.0323961 
1244 1 -0.0423538 0.0393553 0.0409252 0.0708347 
796 1 -0.0842715 0.059901 -0.0181152 0.104967 
691 1 0.0459757 -0.00849018 0.0132461 0.0485933 
421 1 0.00877011 0.0155939 0.0926549 0.0943664 
597 1 -0.0477806 0.0484366 -0.0180071 0.07038 
3617 2 0.00325529 0.0158221 -0.0465949 0.0493155 
120 1 0.043441 0.0263561 0.0140477 0.0527172 
769 1 -0.0329203 0.023813 0.0368081 0.0548237 
2142 1 0.00112991 0.0113681 -0.00959405 0.0149183 
3611 2 0.0858931 0.0510479 0.0769206 0.126096 
1915 1 -0.0269349 0.0300207 -0.0021404 0.0403895 
2140 1 -0.0220551 0.00727091 0.067048 0.0709558 
3828 2 0.0753419 0.0132094 0.0261809 0.0808475 
3204 1 0.00527004 0.0650262 0.0233404 0.0692889 
175 1 0.0561631 0.0415962 -0.032959 0.0772711 
2011 1 0.0486229 0.0250284 -0.0273242 0.0611328 
75 1 -0.0165695 0.0468117 0.0292601 0.0576371 
547 1 -0.0431623 0.0113079 -0.0318037 0.0547935 
4316 2 -0.0163778 0.0201916 -0.00136848 0.0260347 
559 1 0.0188585 0.0238818 -0.0344408 0.0459582 
717 1 0.0293901 0.02529 -0.0214901 0.0443305 
242 1 0.00830094 -0.0139607 0.0451353 0.0479687 
3510 2 -0.029674 0.0150733 0.0301027 0.0448768 
130 1 0.0342237 -0.0375393 0.0684819 0.0852657 
143 1 -0.0106872 0.0232792 -0.0368149 0.0448494 
202 1 -0.0837078 -0.018167 -0.0470309 0.0977186 
182 1 -0.0859265 0.0427305 -0.00622969 0.0961668 
84 1 0.0233567 -0.0538258 -0.0471953 0.0753004 
3633 2 0.0115172 -0.0503865 0.0465997 0.0695915 
35 1 -0.093672 -0.0489149 0.0682947 0.125822 
3612 2 0.0137555 0.0410274 -0.0823619 0.0930373 
40 1 0.0879321 0.0592478 0.0443355 0.114926 
4005 2 0.0401674 -0.0570585 0.0143962 0.0712485 
718 1 -0.00341182 0.0357407 -0.0274637 0.0452028 
134 1 -0.00102832 -0.0401221 0.0325406 0.0516694 
511 1 -0.0236635 -0.0698665 0.0709338 0.102337 
757 1 0.0476349 0.104333 -0.00448568 0.11478 
3555 2 -0.0505951 0.0143242 0.0135682 0.054306 
3481 2 -0.0205086 0.0193939 -0.0194631 0.0342861 
135 1 0.0114188 -0.043436 0.00360755 0.0450565 
369 1 0.0260389 -0.0267715 0.0821344 0.0902264 
2148 1 -0.0401852 -0.021483 -0.0199098 0.049727 
3462 2 0.0343472 -0.056056 -0.0941641 0.114843 
1914 1 -0.0228579 0.000288407 0.0010861 0.0228855 
3661 2 0.0465643 -0.0594835 0.0177972 0.0776097 
1871 1 0.0187681 0.0153592 -0.0211843 0.0322013 
320 1 -0.0301992 -0.0199623 -0.0295051 0.0467016 
582 1 -0.0119455 -0.0713627 0.00746271 0.0727394 
766 1 -0.0298893 0.0119679 -0.00531324 0.0326318 
3552 2 -0.00612244 -0.0410019 0.0141354 0.0438001 
2290 1 -0.030353 0.0389546 0.0420272 0.0648464 
1794 1 0.0111388 -0.0109746 0.0222162 0.0271675 
753 1 -0.0679187 0.0255852 0.00165966 0.0725969 
396 1 -0.0100963 -0.0262161 0.0618334 0.067916 
496 1 -0.00462862 0.0425877 -0.0537123 0.0687033 
480 1 -0.0284159 -0.0423076 0.0501982 0.071535 
253 1 0.0381958 0.00209032 -0.00539694 0.0386318 
4033 2 -0.00049812 0.0171739 -0.0252697 0.0305574 
347 1 -0.0468641 0.00957039 0.0410869 0.0630553 
586 1 -0.0425564 0.0247536 -0.0809506 0.0947459 
3671 2 0.0853169 0.00681626 -0.0774905 0.115457 
37 1 -0.0104513 -0.0406633 0.0127148 0.0438679 
782 1 0.0197301 -0.0557658 -0.0058053 0.0594374 
481 1 0.0313156 -0.00405843 -0.0491109 0.0583868 
392 1 -0.043129 0.0258179 -0.0758558 0.0909988 
333 1 0.0232023 -0.0365357 -0.0205754 0.0479224 
342 1 0.00527595 0.0140568 -0.0309438 0.034394 
1179 1 -0.0103485 0.00693338 -0.037559 0.0395707 
517 1 -0.0140499 -0.0336156 -0.0288442 0.0464693 
1824 1 0.0452337 -0.0298259 0.0886678 0.103912 
34 1 0.00378077 0.019744 0.0317791 0.0376036 
398 1 0.012244 -0.0146616 -0.0284283 0.0342498 
170 1 -0.0512781 -0.0389404 -0.0330981 0.0723966 
235 1 0.00977588 -0.0973078 0.0174995 0.0993509 
3852 2 -0.0128632 -0.0484404 -0.007426 0.0506664 
816 1 0.0312576 -0.000218966 -0.00509283 0.0316705 
3931 2 -0.0613182 -0.0713913 0.0864648 0.1278 
274 1 -0.0281824 -0.0328671 -0.0159279 0.0461324 
30 1 0.0272223 0.00278575 -0.0186993 0.0331433 
2066 1 0.0589232 -0.0404374 0.0713596 0.100992 
1082 1 0.0216929 -0.0018193 0.027335 0.0349442 
1372 1 0.00379913 -0.0220944 0.0620317 0.0659585 
1265 1 0.0470254 -0.00693695 -0.0622568 0.0783289 
601 1 0.0365837 0.0381506 0.0446543 0.0691943 
540 1 0.0191579 0.035359 0.0323965 0.0516412 
589 1 -0.0258322 0.0851769 0.034077 0.0953082 
958 1 0.042415 0.00924776 -0.0328105 0.0544158 
504 1 -0.062183 0.0283408 -0.00240198 0.0683791 
1349 1 -0.0104698 0.0454884 -0.0114904 0.0480712 
9 1 1.30094e-05 -0.0707149 0.0286011 0.0762799 
149 1 0.0140572 0.047103 0.0172137 0.0520827 
163 1 0.0258325 -0.0222828 -0.0208482 0.0399811 
4247 2 0.00980856 -0.0287952 -0.0481051 0.0569163 
1584 1 0.10608 -0.0139442 -0.0901734 0.139924 
3570 2 -0.0261387 -0.0435268 0.000887573 0.05078 
237 1 0.0150503 0.030554 0.00139093 0.034088 
490 1 -0.01701 -0.0369943 0.0185686 0.0447516 
50 1 -0.0365821 -0.0721864 0.0331152 0.0874399 
152 1 0.0166297 0.0135812 0.00616234 0.0223377 
3652 2 0.00863784 -0.0136855 -0.00129174 0.0162349 
3823 2 -0.0049849 0.0540742 -0.0605982 0.0813696 
902 1 0.0246869 0.0507392 -0.0179165 0.0592023 
3574 2 -0.0202657 0.0364768 -0.0443519 0.0608962 
770 1 -0.00542696 -0.0469953 -0.0118003 0.0487572 
154 1 0.00638509 -0.00677601 -0.0244437 0.0261568 
116 1 0.0622735 -0.0485694 0.0170867 0.0808019 
710 1 -0.0585047 -0.0958747 -0.020789 0.114223 
1956 1 -0.00780329 0.0442497 -0.068924 0.0822767 
1810 1 -0.0851642 -0.0273539 0.0711929 0.114322 
2072 1 -0.0214631 -0.021266 -0.0282594 0.0413703 
1649 1 -0.00415529 -0.00439257 -0.0253484 0.0260596 
186 1 -0.0256301 -0.0313983 0.0695546 0.0805021 
1063 1 -0.0206507 0.0277057 -0.11008 0.115376 
432 1 -0.060805 0.057057 -0.0682364 0.107745 
2495 1 -0.0716252 -0.0782979 0.057688 0.120783 
3896 2 0.00113944 -0.00966152 -0.027932 0.0295777 
1071 1 -0.0214869 -0.0306563 -0.0398124 0.0546491 
913 1 0.0463182 -0.0637085 0.0305825 0.0844952 
1068 1 0.0544611 0.0230752 0.00420983 0.0592975 
265 1 -0.0441627 0.0208888 -0.0122132 0.0503572 
1287 1 0.00436727 0.0827353 -0.0042636 0.0829601 
3799 2 0.0201058 -0.0296272 -0.0599274 0.0698091 
554 1 0.0257894 -0.0198609 -0.0619207 0.0699552 
1414 1 -0.0222801 0.0338149 -0.0654662 0.0769784 
213 1 0.00305137 -0.0349543 -0.000567973 0.0350918 
341 1 -0.0443681 -0.0271154 -0.0288803 0.0594798 
3682 2 -0.0383851 0.00705853 -0.040692 0.0563833 
754 1 -0.0349139 0.0909079 -0.00840489 0.0977439 
112 1 -0.0461698 0.0329895 0.00522587 0.0569847 
1041 1 -0.0231648 -0.0802672 0.0139353 0.0846973 
119 1 -0.00229309 -0.0223604 0.0708457 0.074326 
415 1 0.0185439 0.0395691 -0.0300894 0.0530562 
995 1 -0.0256919 0.0318947 0.0166426 0.0442077 
4128 2 -0.0324461 -0.0353619 0.0864871 0.0989102 
8 1 0.0575517 0.0503716 -0.00488442 0.0766378 
94 1 -0.000751726 -0.0490687 0.00976447 0.0500365 
48 1 0.00617312 0.014938 0.000795293 0.0161829 
3998 2 0.0195334 0.0372112 0.0254297 0.0491213 
3866 2 0.0290226 0.019225 -0.00895822 0.0359466 
2206 1 0.0192164 -0.0105608 -0.0117699 0.0248864 
3490 2 -0.0542958 -0.0154271 -0.0137338 0.0580917 
3072 1 0.00701236 -0.0325072 0.0576006 0.066511 
3002 1 0.0690357 0.00571957 0.0277058 0.0746073 
92 1 0.00549734 0.0871916 0.0628771 0.107639 
335 1 -0.0397235 0.055993 -0.0440873 0.0815896 
4034 2 -0.0998286 -0.0885007 0.0312466 0.13702 
1186 1 0.0174081 0.00876497 0.00818108 0.0211376 
1114 1 0.0718269 0.0335305 0.0229505 0.0825235 
1821 1 -0.0186536 -0.0392097 -0.0426639 0.0608734 
1922 1 -0.00345317 -0.0672061 0.00324561 0.067373 
451 1 -0.0575413 -0.041128 -0.0060794 0.0709893 
3960 2 0.00422234 -0.0223236 0.0104941 0.0250259 
100 1 -0.0225427 0.0374078 -0.0397055 0.0590258 
1180 1 -0.0120378 -0.0418461 -0.0485561 0.0652204 
165 1 0.062171 -0.00555593 -0.011472 0.0634642 
388 1 -0.0538964 -0.0507081 -0.0268821 0.0787323 
3742 2 0.0644871 -0.030103 0.033859 0.0788112 
323 1 -0.0616115 0.0773138 -0.0716751 0.122109 
288 1 -0.0344918 0.00815565 0.013672 0.0379885 
3942 2 -0.03648 0.0386682 0.0715758 0.0891578 
66 1 0.0357108 0.0336646 0.0380248 0.0620842 
340 1 -0.014328 -0.0380458 0.00723685 0.0412934 
138 1 -0.0246723 0.0211194 0.0152391 0.0358745 
879 1 0.0103431 0.00349675 -0.0472249 0.0484706 
3808 2 0.0400195 -0.0139469 0.00445954 0.0426141 
834 1 -0.0259986 0.0121614 0.0190907 0.0344714 
18 1 -0.0395388 -0.0439137 -0.072601 0.0936089 
3679 2 0.00774382 -0.0189371 -0.0043226 0.0209109 
52 1 0.0278122 -0.00143134 -0.0109003 0.0299063 
407 1 -0.0535938 -0.00748723 -0.0622483 0.0824815 
360 1 0.042823 -0.0171114 -0.0965748 0.10702 
2885 1 -0.0614295 -0.0523914 -0.0274363 0.0852713 
3526 2 -0.00214179 -0.11007 -0.02975 0.11404 
310 1 -0.0582652 -0.016696 0.0128679 0.0619611 
326 1 0.0500147 -0.0129023 0.0351201 0.0624609 
227 1 -0.00995201 -0.0123973 -0.0086057 0.0180774 
2068 1 -0.0501844 -0.0570684 -0.0940066 0.120882 
456 1 0.00916204 -0.0015703 0.0213691 0.0233034 
279 1 -0.0257564 0.016087 0.0520041 0.0602214 
305 1 -0.0727232 0.00949463 -0.0167674 0.0752327 
49 1 0.00963759 0.0426351 0.031874 0.0540979 
3512 2 -0.0042462 -0.0641377 0.0396731 0.0755356 
11 1 -0.0296522 -0.0863554 -0.000917718 0.0913091 
189 1 -0.0123537 0.0527635 0.0554053 0.0775006 
2271 1 -0.0502383 -0.0242943 -0.0206684 0.0595086 
319 1 -0.0614739 -0.0320552 -0.0110061 0.0701977 
3566 2 -0.0162611 0.0399873 -0.0303772 0.0527843 
71 1 -0.0238564 0.0148997 0.0013429 0.028159 
1560 1 -0.0206236 -0.0326076 0.0425316 0.0574241 
190 1 0.00662307 -0.0322331 0.0279221 0.0431565 
123 1 0.046346 0.016562 0.0392488 0.0629502 
27 1 -0.0330755 0.00216685 -0.0261789 0.0422376 
162 1 -0.0127362 -0.00541749 -0.0709606 0.0722977 
255 1 -0.0612137 0.0139397 -0.0325197 0.0707033 
304 1 -0.0666637 0.00587577 -0.0322256 0.074277 
321 1 -0.00051643 -0.0619469 0.103625 0.12073 
682 1 -0.031438 0.0288039 0.00130139 0.042658 
3469 2 0.0670012 0.0601403 -0.0671376 0.11231 
3539 2 0.0306284 0.0428266 0.0461581 0.0700199 
128 1 0.0532038 -0.025972 -0.023156 0.0635719 
3562 2 0.0798348 0.0275893 0.0363222 0.091946 
560 1 -0.0699506 -0.0414913 0.0156174 0.0828162 
212 1 0.00395847 0.0260911 0.00633425 0.0271392 
355 1 0.0103792 0.0501752 0.0899895 0.103554 
156 1 0.0669602 0.0316555 0.0502366 0.0894956 
3620 2 -0.0158712 -0.0252991 0.00373049 0.0300974 
1823 1 0.104662 -0.0867763 -0.0640531 0.15029 
1805 1 0.00220302 0.0619851 0.0680934 0.0921071 
2599 1 -0.0113059 0.0167478 -0.00871733 0.0220069 
327 1 -0.00364037 0.0131212 -0.00603117 0.0148927 
137 1 0.0460292 -0.0120688 0.0630749 0.0790114 
2334 1 -0.00917527 0.036306 0.0210702 0.0429682 
3698 2 0.0278165 -0.0614523 0.0183868 0.0699158 
555 1 0.0116406 -0.0311672 -0.03182 0.046037 
4178 2 0.0321341 -0.0248016 0.0259621 0.0481845 
290 1 -0.00518985 0.0522072 -0.0201245 0.0561919 
284 1 -0.0291804 -0.00655074 -0.0480913 0.056632 
3543 2 0.0283651 -0.00399668 0.0253597 0.0382579 
366 1 0.0224149 -0.0373841 0.010541 0.0448454 
55 1 -0.0246971 0.0205945 -0.00444171 0.0324625 
273 1 -0.0124926 -0.0513885 0.00235316 0.0529375 
3468 2 0.0383111 0.0191996 0.0163926 0.0458812 
316 1 0.0544065 -0.0390869 0.0864312 0.109354 
81 1 -0.0558193 0.0275867 0.0303666 0.0692744 
322 1 0.0254243 -0.0035142 -0.0116266 0.0281766 
239 1 -0.0252658 0.0191304 -0.0406848 0.0515712 
734 1 -0.0505464 -0.0677762 -0.0277245 0.0889787 
384 1 0.0712059 -0.0280293 -0.0293789 0.0819698 
3476 2 -0.0123008 0.0665728 0.00594387 0.0679602 
311 1 0.0199799 -0.0315731 -0.0528032 0.0646857 
3471 2 -0.0192395 0.0140195 0.00221396 0.0239083 
1938 1 0.0029681 -0.041683 -0.0128615 0.043723 
139 1 0.0867459 -0.0349046 -0.0128929 0.0943897 
727 1 0.0285572 -0.0183943 0.0475092 0.0584037 
1885 1 0.00467223 0.0366257 -0.0603075 0.0707126 
2184 1 0.0518823 0.140153 -0.0871559 0.173005 
2494 1 -0.0926769 -0.0596658 -0.0880005 0.141043 
2091 1 -0.036278 -0.0176429 -0.0344534 0.0530509 
281 1 0.0415312 0.0582152 0.0713532 0.10102 
863 1 0.00911909 0.0824676 0.00608906 0.0831934 
176 1 -0.0693923 0.0494933 -0.0329891 0.0913956 
3710 2 -0.0049572 0.0485412 -0.0241537 0.0544447 
3572 2 0.00531634 -0.0571218 -0.0233494 0.0619383 
4197 2 -0.0573476 0.0225937 -0.00854677 0.0622276 
343 1 -0.000459004 -0.0296999 -0.0775583 0.0830517 
282 1 -0.00517339 -0.0246561 0.00326164 0.0254033 
1038 1 -0.0153259 0.0332066 0.000340724 0.0365743 
408 1 0.114084 0.0805372 -0.025624 0.141978 
412 1 0.0972575 -0.0420738 -0.00690821 0.106193 
820 1 0.0637618 0.000247545 0.0106023 0.0646377 
585 1 -0.036815 -0.0343386 -0.0416472 0.0653374 
3609 2 0.0340069 -0.0358975 0.000242269 0.0494485 
719 1 -0.023414 0.050509 -0.0156303 0.0578245 
608 1 0.00372424 -0.0245716 -0.0107697 0.0270854 
106 1 -0.0156566 0.0487144 0.0265693 0.0576555 
1047 1 -0.0822845 -0.0186209 -0.00632712 0.0846021 
3573 2 0.00184472 0.0169541 -0.0402819 0.0437433 
751 1 -0.0262481 -0.0132433 -0.0243825 0.038195 
259 1 0.0445621 -0.0532398 0.0156708 0.0711747 
245 1 -0.0597384 -0.00624067 -0.0504441 0.0784362 
613 1 -0.0294719 0.000624257 0.107432 0.111403 
4296 2 -0.0264351 0.0283048 0.0189281 0.0431074 
272 1 -0.0685706 -0.067953 -0.00410823 0.0966251 
4239 2 -0.00842056 -0.080176 -0.0371387 0.0887603 
88 1 0.0435141 0.0701355 0.0467606 0.0948632 
4 1 0.0981153 -0.00773693 -0.0451682 0.10829 
361 1 0.0427794 0.0742163 -0.0968143 0.129272 
358 1 -0.0176033 -0.0260988 -0.0125496 0.0338898 
194 1 -0.00469807 0.023802 -0.0539276 0.0591337 
2373 1 -0.00234831 -0.0260819 -0.0497379 0.0562106 
1982 1 -0.00226606 -0.0225948 -0.0238439 0.0329271 
3953 2 -0.0119511 0.012999 0.0265983 0.031926 
414 1 0.00979245 0.00956462 -0.0258661 0.0292648 
3186 1 0.050053 -0.0602558 0.0268277 0.0827997 
177 1 0.0491221 -0.0124489 0.0705236 0.086842 
1962 1 -0.0321866 0.0343202 0.0382285 0.060624 
706 1 0.0333439 -0.0080648 -0.015688 0.0377223 
1544 1 -0.0224497 -0.0303 -0.00244112 0.0377894 
4160 2 -0.0160884 -0.000535916 -0.00751888 0.0177667 
19 1 -0.0206128 -0.0440501 -0.060519 0.0776392 
3624 2 0.00989295 -0.0172647 -0.0377508 0.0426739 
115 1 0.0958355 -0.0596375 -0.00533075 0.113002 
1102 1 -0.0659503 0.00594341 -0.01429 0.067742 
1492 1 0.0275333 0.0217746 0.0357854 0.0501279 
649 1 0.0478666 0.097062 -0.044898 0.117167 
113 1 0.0211968 0.0116614 -0.00598156 0.0249213 
1150 1 0.034484 -0.014944 0.0355019 0.0516997 
620 1 -0.0722912 0.0299643 0.0181511 0.0803327 
739 1 -0.0569414 -0.0135045 0.0257111 0.0639199 
2412 1 0.00555372 0.0584621 0.00403988 0.0588641 
3746 2 0.0563845 0.0166336 -0.100437 0.116377 
1225 1 0.0248913 0.0536049 0.0577189 0.0826108 
241 1 0.0525718 0.0441776 -0.0107786 0.06951 
83 1 0.0288335 0.0383117 -0.0201705 0.0520193 
1006 1 0.0142391 0.00470008 -0.00631431 0.01627 
4046 2 -0.0736854 -0.0274474 -0.037941 0.0873064 
96 1 0.0326416 -0.0658763 -0.010974 0.0743343 
411 1 0.0382491 0.0433774 0.0473548 0.0747467 
2454 1 -0.0222593 -0.000114003 -0.0294843 0.0369433 
404 1 -0.0377844 0.0332595 0.0515261 0.0720333 
226 1 0.0539284 -0.0157037 0.0628017 0.0842552 
534 1 0.0306193 -0.00806645 0.077431 0.0836551 
3538 2 0.0191448 0.0299978 0.0046956 0.0358949 
761 1 0.0511898 0.00442135 0.0134178 0.0531035 
246 1 0.0760681 -0.0631654 0.0313995 0.103741 
2229 1 0.0217312 -0.049267 0.0251664 0.0594376 
146 1 -0.00471798 0.029523 -0.032086 0.0438563 
3608 2 0.0501298 -0.0270155 -0.0094246 0.0577205 
503 1 -0.0322782 -0.00465792 0.0367169 0.0491092 
505 1 0.0575586 -0.0184042 -0.0125481 0.0617184 
1430 1 -0.061938 -0.0263239 0.00120221 0.0673105 
97 1 -0.00427909 0.0312062 -0.0330519 0.0456571 
1723 1 0.0262017 -0.0163534 -0.0650227 0.0719855 
3561 2 0.0150825 0.0684484 -0.00926005 0.0706995 
20 1 -0.0420196 -0.0678138 -0.0251311 0.0836417 
263 1 -0.0523805 0.0743505 0.0213537 0.0934221 
817 1 0.0606801 -0.0392768 0.000998637 0.0722893 
1034 1 0.0158168 0.0128982 0.0135124 0.0244769 
353 1 0.0320902 -0.00833817 0.0494752 0.0595575 
1260 1 0.0407128 0.0579836 -0.0161845 0.0726744 
998 1 0.01261 0.0273895 -0.0344611 0.0457905 
1932 1 0.0533022 -0.0789926 -0.00320501 0.0953479 
36 1 0.0522919 -0.0641817 0.034756 0.0897871 
38 1 -0.0367614 -0.0241839 -0.0585854 0.0732701 
3130 1 0.00644139 0.0313141 -0.0298981 0.0437717 
1973 1 0.0590027 -0.0513383 0.0991262 0.126265 
307 1 -0.032748 -0.0491376 -0.0757253 0.0960274 
2714 1 0.0804052 0.0338665 0.0133659 0.0882643 
28 1 0.00873079 -0.00406569 -0.00772664 0.0123474 
1937 1 -0.00346983 0.00298645 -0.0296454 0.0299968 
562 1 -0.0527028 -0.0699181 -0.000105163 0.0875565 
3011 1 -0.0592536 -0.0209573 0.0167693 0.0650492 
410 1 0.0717217 -0.0146907 0.020613 0.0760573 
693 1 0.0468309 0.0873568 0.0179796 0.100735 
367 1 -0.0283069 0.00314382 -0.00862331 0.0297578 
318 1 0.0852086 0.0230808 -0.0112443 0.0889925 
735 1 0.05458 -0.0365552 0.0230482 0.0696167 
600 1 -0.0294979 0.0544638 0.0424433 0.0750857 
3590 2 -0.0619742 0.0296493 -0.0735411 0.100639 
3636 2 0.0346184 -0.0911464 0.0289923 0.101718 
26 1 -0.0407674 0.053254 0.0381288 0.0771478 
1199 1 0.0409179 -0.010221 -0.0305272 0.0520639 
614 1 -0.022246 -0.0325484 -0.00785122 0.0401985 
459 1 0.0538005 -0.0333423 -0.0385458 0.0741079 
3645 2 0.0498442 0.070538 0.0276827 0.0906994 
574 1 0.0183678 0.0527857 -0.0308673 0.0638475 
780 1 0.0633505 -0.0111388 -0.00969661 0.0650491 
161 1 -0.0107067 0.0546613 -0.0412139 0.0692898 
309 1 0.0846423 0.0337191 0.0181861 0.0929087 
365 1 -0.00792019 -0.0691977 0.000539891 0.0696515 
191 1 -0.0370276 0.0580386 0.00664874 0.0691645 
1766 1 0.0241849 0.08241 -0.0414237 0.0953533 
2775 1 -0.0198853 -0.0703951 -0.0367941 0.0818822 
1030 1 0.00130878 -0.0189781 0.0467427 0.0504654 
1505 1 0.0538979 0.083451 0.0714693 0.12238 
3872 2 0.00430549 0.0344588 -0.00348047 0.0349008 
580 1 -0.0314083 -0.0428648 -0.0260687 0.05919 
2054 1 -0.102542 -0.0435056 -0.0453076 0.120251 
2064 1 0.0382077 0.00286184 -0.0411837 0.0562505 
529 1 0.00751552 0.033334 -0.0530948 0.0631402 
402 1 -0.000345388 0.0396699 -0.0215949 0.0451681 
124 1 0.0151981 -0.0476975 0.00686816 0.0505293 
744 1 0.0399236 0.0307447 -0.00382809 0.050535 
185 1 0.0687956 -0.0389507 0.088626 0.118763 
315 1 -0.0140088 -0.0410319 -0.041757 0.0601956 
655 1 -0.0419552 0.0092785 0.058676 0.0727269 
765 1 -0.0199403 0.0748522 0.024004 0.0810966 
140 1 0.023763 0.0441262 -0.00110413 0.05013 
59 1 -0.0309234 -0.0255279 0.0189292 0.0443424 
54 1 0.0108812 0.0118982 0.0519613 0.0544054 
3506 2 0.0220836 0.0294384 -0.0234264 0.0436246 
666 1 -0.0459182 -0.0650315 0.05238 0.0952956 
43 1 0.0239118 0.105658 0.0414727 0.115997 
334 1 0.015664 0.033203 0.00103423 0.0367269 
267 1 0.0675819 0.0442061 0.0206112 0.0833446 
99 1 0.050006 0.0064431 0.0738385 0.0894105 
1189 1 -0.0601957 -0.0459668 -0.0825699 0.112046 
201 1 0.0184212 -0.0440457 -0.0420434 0.0636162 
380 1 0.0331639 0.0647097 -0.0877752 0.113981 
1777 1 0.0220962 -0.013615 -0.0338299 0.0426388 
2597 1 0.149483 -0.0122197 -0.0544438 0.159557 
2484 1 0.0938985 -0.0282286 -0.0705941 0.120819 
308 1 -0.0495622 -0.0261646 -0.0226613 0.0604527 
3918 2 -0.0240009 0.0373614 -0.00269175 0.0444878 
89 1 -0.0437242 0.00402504 -0.031467 0.0540201 
300 1 -0.00593113 0.027278 -0.00686946 0.0287482 
3582 2 0.0141101 0.0704662 0.00705682 0.0722106 
712 1 -0.0562238 0.0267373 0.0543792 0.0826626 
3836 2 -0.00440631 0.0182374 -0.0416198 0.0456533 
268 1 0.0272786 0.00781967 -0.0190963 0.0342043 
788 1 0.0183259 0.00992728 -0.0766907 0.0794723 
4091 2 -0.011444 0.07489 0.0367127 0.0841861 
371 1 0.0435331 0.0130445 0.0159969 0.0481788 
3505 2 0.005424 -0.0165077 0.074929 0.0769174 
266 1 0.00351769 -0.0236142 -0.0164156 0.0289737 
3571 2 -0.0693274 0.0669428 0.0089618 0.0967881 
637 1 -0.0131199 0.00302475 -0.0245586 0.0280073 
157 1 0.0515566 -0.00242529 0.00596922 0.0519576 
257 1 0.014175 0.0398458 0.0425867 0.0600187 
571 1 -0.0449021 -2.06247e-05 -0.046525 0.0646589 
665 1 -0.0644297 0.0335369 0.0859321 0.112518 
448 1 -0.0627748 -0.0196424 0.0126105 0.0669741 
827 1 0.0881331 0.0661439 -0.0108572 0.110726 
3475 2 -0.0161746 -0.0209447 0.0212833 0.0339599 
73 1 -0.0127959 0.0793198 -0.0123699 0.081292 
373 1 0.0314224 -0.0458773 0.0410341 0.0691078 
247 1 -0.00219222 -0.00984677 -0.0163973 0.0192519 
107 1 0.0340714 0.00796564 0.0315398 0.047107 
675 1 -0.00177334 0.0377883 -0.0800503 0.088539 
434 1 -0.0109621 0.042702 0.0285277 0.0525115 
159 1 -0.0205503 0.00477788 -0.00849728 0.0227453 
32 1 0.0179183 0.0437811 -0.000474512 0.0473083 
3579 2 0.010177 -0.0628064 -0.0144112 0.0652372 
394 1 -0.0258962 0.00483045 0.0289763 0.0391608 
260 1 -0.0475644 0.0037907 0.0112062 0.0490134 
3972 2 -0.0254691 0.012172 0.0839526 0.0885713 
1801 1 -0.0552456 0.000153072 0.0475531 0.072893 
2122 1 -0.0120896 0.0225341 0.0473817 0.053842 
1966 1 0.024752 0.000793598 -0.0421527 0.0488891 
291 1 -0.00215379 -0.00203331 0.0200104 0.0202284 
2047 1 0.0480394 -0.00234684 0.0333229 0.0585124 
1899 1 -0.0269333 0.114725 0.0158927 0.118911 
622 1 -0.0555984 0.0091855 0.00947598 0.0571432 
1993 1 -0.0158511 0.0111534 -0.0106459 0.0221131 
62 1 0.0388676 0.0460994 0.013146 0.0617144 
2187 1 0.0225209 -0.00358138 -0.0743581 0.0777762 
4318 2 0.0301212 -0.0406111 -0.00510374 0.0508193 
44 1 -0.0320644 -0.0494262 0.0353196 0.0686917 
824 1 -0.0253034 -0.00938157 0.0137474 0.0302865 
1282 1 -0.0315903 0.00759625 0.0701858 0.0773414 
3626 2 0.024906 0.0297169 -0.0097447 0.0399795 
819 1 0.0315545 0.00324377 0.0336729 0.046261 
773 1 -0.0610284 -0.0507888 0.015083 0.0808175 
270 1 0.0444998 -0.0612375 0.0398378 0.0855413 
14 1 -0.0505138 0.0406979 -0.0478779 0.0806241 
3540 2 0.0327646 -0.0432176 -0.00719952 0.0547093 
997 1 0.0707513 0.00586616 0.00966103 0.0716484 
4275 2 -0.0127953 -0.0540345 -0.0480373 0.0734236 
164 1 0.0341825 0.0421561 0.10322 0.116619 
234 1 -0.0518244 -0.0547555 0.0314826 0.0817012 
1125 1 0.000156675 0.0652951 -0.0475224 0.080758 
3985 2 -0.0614961 -0.00642812 0.0697114 0.0931814 
328 1 0.0159655 0.0103716 -0.0342743 0.0392071 
3474 2 0.00681901 0.0184798 -0.00808419 0.0212921 
543 1 -0.0443317 -0.0304254 -0.00492103 0.0539928 
293 1 0.0453878 -0.0268869 0.0118813 0.0540752 
3458 2 0.0387765 -0.046652 0.035049 0.0700604 
390 1 -0.0197356 -0.0458084 0.0257244 0.0561218 
3706 2 0.0955662 -0.0422975 -0.0504283 0.116039 
2169 1 0.0500706 0.0254434 0.0173325 0.0587779 
1786 1 -0.036792 0.0284656 -0.0559303 0.072747 
1478 1 0.0232067 -0.020631 0.077887 0.0838485 
87 1 -0.0157139 -0.0285599 -0.00675487 0.03329 
4090 2 -0.00190984 -0.0473561 0.0470819 0.0668054 
142 1 -0.0207486 0.0192887 0.051594 0.05886 
1650 1 -0.0558019 -0.0271083 -0.0550588 0.0829469 
153 1 -0.00213079 0.031159 0.0155098 0.0348708 
374 1 0.0349978 -0.0218592 0.00415215 0.0414718 
602 1 -0.00762651 -0.0234886 -0.00760107 0.025839 
1277 1 -0.0427757 0.00828769 0.00623715 0.0440153 
76 1 -0.0469273 -0.0213285 0.0325729 0.060976 
1370 1 0.0338286 -0.0357543 0.0754621 0.0900959 
221 1 0.0147272 -0.000798192 -0.0549316 0.0568772 
604 1 -2.33796e-05 0.0529473 0.0570424 0.0778284 
1161 1 -0.0492183 -0.00137767 0.0432833 0.0655575 
1718 1 -0.0835281 0.00211458 -0.0512251 0.0980072 
178 1 0.0459814 -0.0848361 -0.00111149 0.0965022 
295 1 -0.0463703 -0.0357276 0.0145219 0.0603122 
1472 1 -0.0445971 -0.0546984 0.0344972 0.0785549 
4159 2 -0.0129617 -0.0400031 -0.0282082 0.0506355 
3467 2 0.0740052 -0.00453846 0.021331 0.0771516 
3531 2 0.0434311 -0.0143284 0.0882329 0.0993811 
2720 1 -0.100972 0.0412042 -0.0220689 0.111266 
1851 1 0.0155048 0.0306878 0.000611285 0.0343877 
732 1 -0.0492333 -0.063566 0.00577471 0.0806096 
4009 2 0.0407821 0.0696841 -0.0184678 0.0828258 
3878 2 0.00900279 0.0114742 -0.0174843 0.0227685 
3185 1 -0.0596808 -0.0285429 0.00644039 0.0664679 
110 1 -0.0581157 -0.019164 0.0167501 0.063445 
2963 1 -0.0167248 0.00310639 -0.0139306 0.0219871 
2608 1 -0.0267043 0.00872343 0.00335159 0.0282922 
3301 1 -0.00295753 -0.0167692 -0.00184676 0.0171278 
3759 2 -0.0180088 0.0311496 -0.0123015 0.0380255 
4171 2 0.000772437 0.0196822 -0.000365509 0.0197007 
2118 1 -0.0155187 0.00943186 -0.0615254 0.0641495 
1742 1 0.0588137 -0.0795984 0.0154772 0.100172 
642 1 0.034362 -0.0875338 0.0643741 0.11396 
3366 1 -0.0523532 0.00882007 0.0532731 0.0752109 
144 1 0.0985588 0.0645536 0.0105896 0.118293 
681 1 0.0398393 -0.0393489 -0.0472666 0.0732778 
1666 1 0.0793347 -0.0287791 -0.033268 0.0907138 
183 1 -0.0717585 -0.0368054 -0.0166166 0.0823409 
694 1 -0.0910792 0.0163333 0.0615136 0.111113 
444 1 -0.0114258 0.0616159 -0.059932 0.0867117 
869 1 -0.00753813 -0.0795418 0.0596953 0.0997359 
920 1 -0.00370148 -0.0558866 -0.0343806 0.0657194 
53 1 0.025628 0.00632556 0.0206897 0.0335391 
1450 1 -0.119109 -0.0530948 0.000725208 0.130409 
1579 1 0.0935763 -0.0484525 0.0533015 0.11809 
51 1 0.0523728 0.0165492 0.0355187 0.0654092 
4187 2 -0.0597658 -0.0346108 -0.143584 0.159331 
1694 1 0.00719655 -0.0683218 0.033082 0.0762501 
1590 1 0.00999555 0.0339011 -0.021653 0.0414493 
2005 1 -0.0256162 0.00488283 0.111594 0.1146 
736 1 -0.0235911 -0.0148326 -0.060978 0.0670437 
363 1 0.0178937 -0.00216676 0.0351727 0.0395221 
230 1 0.0151074 0.0184193 0.146086 0.148016 
2538 1 -0.0133255 0.0212361 -0.060974 0.065927 
357 1 -0.0748145 0.00158656 0.020742 0.0776528 
3849 2 0.0808832 -0.00388741 0.0261608 0.0850975 
4102 2 0.0655369 -0.0782911 0.034181 0.10767 
1032 1 0.0548037 -0.0225853 0.0048137 0.0594703 
78 1 -0.00660116 0.0104136 -0.0121876 0.0173366 
564 1 0.0630428 0.0071932 0.0908244 0.110794 
797 1 0.104456 -0.0303413 -0.0387743 0.115478 
1476 1 0.0941927 -0.0281476 -0.0214399 0.100619 
872 1 -0.055282 -0.0334952 -0.0295394 0.0710676 
475 1 -0.0318212 0.00825619 0.013104 0.0353902 
4119 2 0.0561722 -0.0465405 -0.0330544 0.080087 
576 1 -0.102621 0.0461472 0.0573046 0.126272 
507 1 0.0422052 -0.00867007 0.0244347 0.0495329 
248 1 0.073749 -0.0431497 -0.00915661 0.085934 
3597 2 -0.038736 0.0194589 0.00460458 0.0435927 
539 1 -0.00323883 0.0240465 0.0755711 0.0793708 
63 1 0.0604298 0.0120476 0.0128194 0.0629384 
57 1 -0.0901212 0.00520702 -0.00957929 0.0907784 
854 1 -0.00238659 0.0228433 0.0101776 0.0251216 
668 1 0.10089 -0.0462396 -0.0948211 0.145972 
385 1 -0.0868208 -0.0987151 0.00639056 0.131618 
752 1 0.0314502 -0.0217818 -0.00839772 0.0391674 
3650 2 0.0339567 0.0432961 0.0202113 0.0586183 
3736 2 -0.0716217 -0.0735328 -0.0654969 0.121764 
254 1 -0.0393324 -0.0578654 -0.0224282 0.0734742 
3637 2 -0.012441 -7.34969e-05 0.0582184 0.0595329 