ITEM: TIMESTEP
62
ITEM: NUMBER OF ATOMS
4320
ITEM: BOX BOUNDS pp pp pp
0.0000000000000000e+00 1.9309999999999999e+01
0.0000000000000000e+00 1.9309999999999999e+01
0.0000000000000000e+00 9.6549999999999994e+00
ITEM: ATOMS id type c_displacement[1] c_displacement[2] c_displacement[3] c_displacement[4] 
4012 2 0.0445082 -0.0750378 -0.039062 0.0955902 
2361 1 -0.0370832 -0.10918 -0.0931634 0.14824 
79 1 -0.0181302 -0.0718304 0.000593139 0.0740856 
781 1 0.0591776 -0.0138726 0.129272 0.142848 
461 1 0.0102204 0.05132 -0.00576664 0.0526446 
3704 2 0.0105669 -0.0962856 0.0149688 0.0980135 
629 1 -0.0588046 0.105949 0.0389458 0.127279 
1571 1 0.0173019 -0.0283189 -0.0355456 0.0486293 
58 1 0.0896197 0.112217 0.087298 0.168063 
2372 1 -0.0570846 -0.0328096 -0.0113906 0.0668196 
372 1 0.0264712 -0.0761139 -0.0132245 0.0816636 
3504 2 -0.0343661 -0.085442 0.0452306 0.102602 
4130 2 0.0543966 -0.0228147 -0.0998221 0.115948 
1262 1 0.0613196 0.0762208 -0.0543832 0.111925 
907 1 -0.113759 -0.0630473 -0.140707 0.19161 
3659 2 -0.011087 0.149162 -0.101353 0.180679 
1298 1 0.0383965 0.0815202 -0.106781 0.139721 
1716 1 0.0522103 0.0632368 -0.0727653 0.109634 
1182 1 0.0457062 0.027208 -0.0360056 0.0642319 
683 1 -0.0193617 -0.05903 0.0527826 0.0815194 
1958 1 -0.0205303 -0.0503799 0.0421852 0.0688419 
1554 1 0.0440243 -0.0870157 -0.0822754 0.12759 
1037 1 0.00421834 -0.136864 0.0200716 0.138392 
749 1 -0.0927386 -0.107496 0.0359814 0.14646 
3628 2 0.0448591 0.0636363 -0.0125332 0.0788606 
946 1 -0.0689504 -0.0244899 -0.0412865 0.0840148 
2232 1 -0.03785 -0.117496 -0.095283 0.155938 
7 1 0.0332376 -0.0133443 0.0381314 0.0523146 
501 1 -0.0117873 0.0259393 -0.0590076 0.0655262 
179 1 -0.0379894 -0.0274907 -0.0288181 0.0550401 
714 1 -0.121104 -0.0228249 0.0981284 0.157532 
4166 2 -0.00355517 -0.0805966 0.071666 0.10791 
276 1 -0.0313229 -0.0319365 0.113093 0.121619 
767 1 -0.0342042 -0.0308631 0.0201761 0.0502944 
3890 2 -0.189034 -0.0489755 -0.103736 0.221119 
6 1 0.0215547 0.167472 -0.0263544 0.170898 
2086 1 0.0174703 0.0148354 0.0376079 0.0440415 
224 1 0.1053 -0.0547905 0.00765265 0.118948 
3660 2 0.00985459 -0.00921409 0.0775312 0.0786962 
596 1 -0.0929032 -0.00765794 -0.00923102 0.0936742 
1214 1 0.0397382 -0.0653997 -0.0920862 0.119733 
3686 2 0.0103998 0.0104935 0.0397542 0.0424107 
427 1 -0.109138 0.0663624 0.0973641 0.160608 
350 1 0.0180506 0.069215 -0.0665253 0.097684 
85 1 -0.030086 0.0488987 0.0678303 0.0888662 
598 1 0.0119055 -0.0883466 0.0983826 0.132763 
3554 2 0.0580374 -0.037301 -0.0403767 0.0799373 
29 1 -0.145451 0.0628648 -0.0126151 0.158956 
464 1 0.0228094 0.00389407 -0.121949 0.124125 
3619 2 -0.0699573 0.0445237 0.114594 0.14145 
12 1 -0.0474491 -0.087974 -0.0664491 0.120026 
364 1 -0.144747 -0.0169081 -0.09602 0.174521 
1849 1 -0.0785616 -0.108377 -0.0811981 0.156559 
3663 2 -0.184825 0.0614362 -0.0172861 0.195534 
3517 2 0.018683 0.00806392 0.129061 0.130655 
25 1 0.214315 0.0134298 -0.0668286 0.224894 
4163 2 0.029452 -0.0276226 -0.02673 0.0484244 
399 1 0.0533048 0.0313361 -0.0276848 0.0677481 
4265 2 -0.0600464 0.0723551 0.0774393 0.12181 
527 1 0.0169015 0.0596266 -0.0473582 0.0779986 
200 1 0.0776729 0.0427279 0.111916 0.142772 
1951 1 0.135138 0.107808 0.0341508 0.176213 
644 1 0.028861 -0.0413577 0.0542955 0.0741041 
193 1 0.051166 0.0923725 0.0548535 0.118994 
550 1 0.0308618 -0.0268351 -0.0275619 0.0493176 
69 1 0.0243859 -0.0236858 -0.0226177 0.040832 
842 1 -0.0488658 0.0387283 -0.0397832 0.0739625 
578 1 0.00767142 -0.0251083 0.0176281 0.0316232 
172 1 -0.0355608 -0.0400505 0.0282175 0.0605379 
381 1 -0.0264918 -0.00508564 -0.0173618 0.0320797 
3524 2 0.0463786 -0.0773 0.11671 0.14747 
688 1 -0.0619894 0.109954 -0.0140285 0.127002 
3651 2 -0.0590791 0.0501001 0.0677687 0.102922 
2367 1 0.0384645 0.000909662 -0.0464718 0.0603322 
1244 1 -0.110685 -0.0458901 -0.00411242 0.119892 
796 1 -0.0474327 0.116546 -0.0393779 0.131846 
691 1 0.0491303 -0.00860809 0.00531596 0.0501612 
421 1 0.0783163 0.0529823 0.0419838 0.103456 
597 1 -0.00460836 0.0531546 0.0126287 0.0548282 
3617 2 0.0762484 -0.0165125 -0.0346105 0.0853485 
120 1 0.0827203 0.175505 0.0951648 0.216104 
769 1 -0.0829313 -0.0371411 0.0449156 0.101363 
2142 1 0.00214686 0.0430674 -0.0326691 0.0540988 
3611 2 0.153679 0.0165473 0.178892 0.236418 
1915 1 -0.00850005 0.0783159 0.0666146 0.103166 
2140 1 0.026814 -0.0288101 0.101412 0.108782 
3828 2 0.113566 0.055131 0.0678465 0.143317 
3204 1 -0.0101825 0.0563679 0.0551058 0.0794838 
175 1 0.111792 0.00496548 -0.0483456 0.121899 
2011 1 0.157883 0.0732995 -0.00066957 0.17407 
75 1 -0.00786421 0.133187 -0.0598238 0.146217 
547 1 0.00806892 -0.0352262 -0.121291 0.12656 
4316 2 -0.0838457 0.0656264 -0.0782976 0.132164 
559 1 0.020409 0.0339491 -0.0202297 0.0444781 
717 1 -0.0102328 0.0792432 -0.0649888 0.102994 
242 1 -0.00593144 -0.0415633 0.0937066 0.102682 
3510 2 -0.106608 0.0220601 0.138205 0.175934 
130 1 0.111632 -0.0147612 0.122813 0.166622 
143 1 0.0044115 0.0784583 -0.0645412 0.101689 
202 1 -0.151608 -0.111682 -0.0700281 0.200902 
182 1 -0.142088 0.0542093 0.0190791 0.15327 
84 1 0.0412993 -0.0116888 -0.0086506 0.0437847 
3633 2 -0.0122011 -0.0503678 0.00473935 0.0520408 
35 1 -0.171464 0.044369 0.131407 0.220536 
3612 2 0.0206219 0.0407563 0.000849374 0.0456843 
40 1 0.148416 0.10766 0.0951449 0.206568 
4005 2 0.0704608 -0.082833 0.0540459 0.121437 
718 1 -0.108807 -0.016574 -0.0545127 0.122823 
134 1 -0.0166032 0.017162 0.109151 0.111733 
511 1 -0.0546842 -0.0373852 -0.00127183 0.0662543 
757 1 0.00823078 0.168964 0.00524717 0.169246 
3555 2 -0.0725906 0.0910054 0.0557772 0.129083 
3481 2 -0.0229552 -0.0254727 -0.039913 0.0526199 
135 1 -0.000212071 -0.0437368 -0.0921399 0.101994 
369 1 0.0947867 -0.0431469 0.0466058 0.114098 
2148 1 -0.097295 -0.0648247 0.0635239 0.133056 
3462 2 0.0563331 -0.0625535 -0.170566 0.190208 
1914 1 0.00720538 0.051227 -0.00508741 0.0519808 
3661 2 0.0987236 -0.141967 0.00530244 0.173 
1871 1 0.0133882 0.0394343 -0.04562 0.0617697 
320 1 -0.0699516 -0.0533722 -0.0510768 0.101738 
582 1 -0.0477485 -0.100906 -0.0554109 0.124629 
766 1 -0.021476 0.0176333 -0.0135255 0.0309046 
3552 2 0.0283103 -0.0113425 -0.0104155 0.0322274 
2290 1 -0.0336817 0.0445609 0.0269635 0.0620254 
1794 1 -0.0215122 0.083394 0.09128 0.125496 
753 1 -0.0366763 0.0391758 0.061197 0.0813939 
396 1 0.0160301 -0.00667419 0.164353 0.165267 
496 1 0.00286498 -0.0260678 -0.095706 0.0992339 
480 1 -0.0442552 -0.0662517 0.0939629 0.123194 
253 1 0.0505571 -0.00850288 -0.0427189 0.0667325 
4033 2 -0.0119961 0.0175894 -0.0667028 0.0700182 
347 1 -0.0287747 0.0127092 -0.068687 0.0755474 
586 1 -0.109437 0.0456923 -0.110126 0.16184 
3671 2 0.00935321 0.0223707 -0.0470673 0.0529458 
37 1 0.0483419 -0.151592 -0.0207823 0.160465 
782 1 0.0305147 -0.143393 -0.0532271 0.155967 
481 1 0.0981036 -0.0457102 -0.0778922 0.133345 
392 1 -0.0234038 0.0375948 -0.0926622 0.102701 
333 1 0.0455083 -0.0324402 -0.021897 0.0600238 
342 1 -0.0282293 -0.05564 -0.0439285 0.0763048 
1179 1 0.00784682 -0.0558069 -0.0638709 0.085179 
517 1 0.0222946 -0.0980196 -0.0265093 0.10396 
1824 1 0.0383685 -0.0544711 0.0908309 0.112648 
34 1 0.104893 -0.008616 0.0382491 0.111981 
398 1 -0.016431 -0.0638021 -0.0836147 0.106452 
170 1 -0.0687619 -0.0661349 -0.0552524 0.110249 
235 1 0.0512957 -0.0888575 0.0953565 0.140071 
3852 2 -0.0428629 0.00844071 -0.0142805 0.0459609 
816 1 0.0457932 -0.0460187 -0.103442 0.122127 
3931 2 -0.155213 -0.133075 0.079998 0.219544 
274 1 -0.0203509 -0.0615166 -0.0297878 0.0713145 
30 1 -0.0158759 -0.0481477 -0.0385651 0.0636987 
2066 1 0.0846271 -0.0356822 0.151607 0.177256 
1082 1 -0.0237891 -0.138299 0.116174 0.182178 
1372 1 0.00708773 -0.0551845 0.107657 0.121184 
1265 1 0.0658515 -0.0353438 -0.0723827 0.104043 
601 1 -0.0368108 0.0745539 0.00988882 0.0837324 
540 1 -0.0412823 -0.0807412 -0.0172672 0.0923122 
589 1 -0.0424307 0.144844 0.129966 0.199177 
958 1 0.140547 -0.0202405 0.0354072 0.146345 
504 1 -0.0807901 0.0655104 -0.0361647 0.110121 
1349 1 -0.127931 -0.00149079 -0.0628956 0.142564 
9 1 0.0305604 -0.12873 0.00685606 0.132485 
149 1 -0.0177612 0.056188 -0.0167747 0.0612694 
163 1 0.00640089 -0.194603 0.0608704 0.204001 
4247 2 0.0304758 -0.0881451 -0.0542758 0.107908 
1584 1 0.17501 -0.0108614 -0.0753161 0.190837 
3570 2 -0.0399968 -0.104635 -0.0366928 0.117875 
237 1 0.0145965 0.0657788 0.101871 0.122138 
490 1 0.0201253 -0.0946046 -0.0247739 0.0998439 
50 1 -0.019159 -0.00366839 0.0144267 0.0242622 
152 1 0.094849 -0.00283742 -0.122277 0.154777 
3652 2 -0.0628094 -0.0440375 -0.00436423 0.0768334 
3823 2 0.0762445 0.0951207 -0.148936 0.192466 
902 1 0.0163598 0.0643018 -0.00652941 0.0666708 
3574 2 -0.0331385 0.0588368 -0.0492557 0.0835826 
770 1 -0.0152201 -0.062232 -0.0616081 0.0888821 
154 1 -0.0499506 -0.0581216 -0.00454098 0.0767711 
116 1 0.09499 -0.0544615 0.0803905 0.135837 
710 1 -0.0912211 -0.163965 -0.103118 0.214101 
1956 1 -0.0536209 0.0035574 -0.00368588 0.0538651 
1810 1 -0.10954 -0.0231783 0.0444085 0.120451 
2072 1 -0.0675028 -0.0366534 -0.00796049 0.0772235 
1649 1 -0.0658782 0.0232644 -0.102148 0.123755 
186 1 -0.0632665 0.0785654 0.0717932 0.123812 
1063 1 -0.120549 0.138857 -0.162642 0.245491 
432 1 -0.169663 0.0585248 -0.146244 0.231513 
2495 1 -0.00971983 -0.101091 0.0515749 0.113903 
3896 2 -0.0149053 -0.017799 -0.0992133 0.101893 
4115 2 0.057192 -0.00904547 -0.0353055 0.0678176 
913 1 0.0515767 -0.0238655 0.0067684 0.0572323 
1068 1 -0.0592031 0.0113025 -0.0380307 0.0712677 
265 1 -0.0896661 -0.0273288 -0.0635739 0.113263 
1287 1 0.036899 0.0941942 0.021158 0.103352 
3799 2 0.105263 -0.0832514 -0.135094 0.190424 
554 1 0.0923636 -0.0781667 -0.00388024 0.121062 
1414 1 -0.00122383 0.0583523 -0.0625528 0.0855531 
213 1 0.0111403 0.00550575 0.0526344 0.0540814 
341 1 -0.108264 -0.0420701 -0.0269603 0.119239 
3682 2 -0.011198 0.0763475 -0.0603802 0.0979801 
754 1 -0.0849763 0.0281888 0.0313735 0.0948677 
112 1 -0.0490643 0.0403395 0.00196456 0.0635488 
1041 1 -0.0140167 -0.0149458 0.0125365 0.024021 
119 1 0.0321997 0.072407 0.0170307 0.0810533 
415 1 -0.0621869 0.00326797 -0.0501004 0.0799246 
995 1 -0.0677299 0.0505901 0.0188049 0.0866044 
4128 2 0.0448646 -0.0269524 0.194819 0.201727 
8 1 0.0208842 0.0713263 0.010262 0.075026 
94 1 0.0437115 -0.0159634 -0.0132567 0.0483866 
48 1 0.050334 4.44902e-05 0.065612 0.082695 
437 1 0.0178627 -0.0537372 -0.0587102 0.0815699 
3866 2 0.0686348 0.0182749 -0.0460685 0.0846582 
2206 1 0.0210108 0.00912155 -0.0145413 0.0271312 
3490 2 -0.0889598 0.021029 -0.0535234 0.105928 
3072 1 -0.0352474 -0.0938133 0.0480309 0.111132 
3002 1 0.0836691 0.114265 0.0266989 0.144118 
92 1 0.0468644 0.0937786 0.0896555 0.137945 
335 1 -0.0124771 0.0680007 -0.0324114 0.0763562 
2192 1 -0.0112158 0.0207116 0.0996361 0.102382 
1186 1 0.036588 -0.0275242 -0.0207228 0.0502563 
1114 1 0.0504541 -0.0289816 0.024576 0.0631627 
1821 1 -0.0796017 -0.0761319 -0.0644102 0.127598 
1922 1 0.0586561 -0.0889486 0.0547536 0.119793 
451 1 -0.118309 -0.0313766 -0.01201 0.122987 
3960 2 -0.00876532 -0.0394962 0.0412177 0.0577554 
100 1 -0.0410917 0.0153939 -0.0828909 0.0937891 
1180 1 0.0325625 -0.0514614 -0.100102 0.11717 
165 1 0.0696959 -0.0255048 -0.0156709 0.0758525 
388 1 -0.0700994 -0.0291102 -0.0770138 0.108132 
3742 2 0.0543837 -0.0583131 0.014113 0.0809764 
323 1 -0.132596 0.142434 -0.0126501 0.19501 
288 1 -0.0953551 0.0195762 -0.0138379 0.0983225 
3942 2 -0.0945079 0.0907469 0.106954 0.169133 
66 1 0.0649629 0.0222851 0.0677107 0.0964445 
340 1 0.0474073 0.0526574 -0.0425567 0.0826519 
138 1 -0.0159293 -0.0153573 0.0260559 0.0341833 
879 1 -0.0245932 -0.0406982 -0.0668048 0.0820003 
3808 2 0.0745215 0.127198 -0.0319266 0.150838 
834 1 0.0407807 0.0262978 0.00767478 0.0491278 
18 1 -0.0790903 -0.063501 -0.0900547 0.135637 
3679 2 0.0744893 -0.0476613 -0.0575015 0.105483 
52 1 0.032081 -0.102301 0.0072222 0.107456 
407 1 0.0205196 0.0355262 -0.0694756 0.0806847 
360 1 0.0712155 -0.0412955 -0.0713291 0.108926 
2885 1 -0.0841996 -0.0195864 -0.0100457 0.0870294 
3526 2 -0.0360556 -0.232162 -0.0498881 0.240184 
310 1 -0.0865664 -0.0448302 -0.0310928 0.102324 
326 1 0.121695 -0.0190211 0.0796124 0.146661 
227 1 -0.035927 -0.0549558 -0.0478197 0.0812257 
2068 1 -0.136534 -0.0143858 -0.132307 0.190666 
456 1 0.0650188 -0.0162518 0.0474878 0.0821381 
279 1 -0.00145593 0.0387875 0.129433 0.135127 
305 1 0.00854234 0.0467306 -0.0476505 0.0672851 
49 1 0.00219057 0.0900947 0.0510224 0.103562 
3512 2 0.0238342 -0.128452 0.0364151 0.135624 
11 1 -0.0806296 -0.189851 0.0214778 0.207378 
189 1 -0.0980178 0.115901 0.0452599 0.158395 
2271 1 -0.113676 -0.0588932 -0.026558 0.130751 
319 1 -0.112168 -0.0602687 0.00734938 0.127546 
3566 2 0.0386592 0.0546114 -0.0660842 0.0940429 
71 1 0.0354583 -0.00276122 0.0574409 0.0675601 
1560 1 -0.0295773 0.00177433 0.0543196 0.0618755 
190 1 -0.0644115 0.00529429 0.108225 0.126054 
123 1 0.0822763 -0.000501772 0.1035 0.132219 
27 1 -0.0327316 -0.0171819 -0.0203725 0.0422091 
162 1 0.00974169 0.0376212 -0.0893607 0.0974454 
255 1 -0.118452 -0.00368352 -0.0143484 0.119375 
304 1 -0.0734577 -0.0110113 -0.0746467 0.105306 
321 1 0.0163245 -0.045346 0.145037 0.152835 
682 1 -0.094399 0.0137317 0.00700877 0.0956496 
3469 2 0.028397 0.0145586 -0.0820699 0.0880557 
3539 2 0.0185885 0.0151149 0.112998 0.11551 
128 1 0.0469999 -0.074064 -0.0923924 0.1274 
3562 2 0.110126 0.0189437 0.134616 0.174952 
560 1 -0.171484 -0.0560601 -0.0515664 0.18764 
212 1 -0.0455778 0.0649064 -0.0650055 0.102547 
355 1 0.0169975 0.0509062 0.0832011 0.099009 
156 1 0.0089498 0.083321 0.0556691 0.100606 
3620 2 0.0536518 -0.0731459 -0.00507212 0.0908547 
1823 1 0.210376 -0.149725 -0.0903289 0.27356 
1805 1 -0.124961 0.0463923 0.0953195 0.16387 
2599 1 -0.0806859 0.0351757 0.0915367 0.12699 
327 1 0.097696 0.0166027 0.0377931 0.106059 
137 1 0.0734533 0.0389092 0.00441272 0.0832393 
2334 1 0.00317696 0.0224449 0.0375503 0.0438622 
3698 2 0.0260941 -0.063017 -0.0076359 0.068632 
555 1 -0.0316596 -0.0493534 -0.0446084 0.073675 
4178 2 -0.0136498 -0.0902352 0.0511043 0.104596 
290 1 -0.00510935 0.012129 -0.0153543 0.020223 
284 1 0.0282807 0.0270253 -0.0266096 0.04731 
3543 2 -0.0665458 -0.0472205 0.0200603 0.084027 
366 1 0.0329349 -0.0211586 0.0925114 0.100453 
55 1 0.0114229 0.0506523 -0.0112162 0.053122 
273 1 -0.0353401 -0.0145677 -0.0689388 0.078827 
3468 2 0.103124 -0.0201133 0.0980779 0.14373 
316 1 0.147305 0.0341049 0.115718 0.190401 
81 1 -0.0559401 -0.0308934 0.00112638 0.0639137 
322 1 0.0446447 -0.0576823 0.0452299 0.0858262 
239 1 0.0148813 0.00121693 -0.0571815 0.0590987 
734 1 -0.00305681 -0.0594498 -0.066791 0.0894688 
384 1 0.058045 -0.0870901 -0.0924521 0.139647 
3476 2 0.00456188 0.0960818 0.0142765 0.0972437 
311 1 -0.0480966 -0.0867896 -0.0631761 0.11763 
3471 2 0.0341639 0.0375766 0.0619369 0.0800959 
1938 1 0.0726939 -0.05967 0.0130458 0.0949479 
139 1 0.175662 -0.0129526 -0.0256403 0.177995 
727 1 0.0906588 -0.0974785 0.0133112 0.133784 
1885 1 -0.00793976 0.038491 -0.0489866 0.0628035 
2184 1 0.185882 0.126752 -0.069538 0.235486 
2494 1 -0.165328 -0.011911 -0.138737 0.216155 
2091 1 -0.010858 0.0221063 -0.0692656 0.073514 
281 1 0.022102 0.104705 0.125901 0.165236 
863 1 -0.0103575 0.0691258 -0.0871431 0.111712 
176 1 -0.0599826 0.0462465 -0.0707218 0.103625 
3710 2 0.00223575 0.0686038 -0.0582749 0.0900413 
3572 2 -0.0220354 -0.116435 -0.100634 0.155467 
4197 2 -0.0576766 0.077723 -0.0861051 0.129544 
343 1 -0.0517171 -0.040307 -0.113554 0.131125 
282 1 -0.0562024 -0.0244967 -0.0562487 0.0832029 
1038 1 0.00769038 0.0746161 0.0693872 0.102183 
408 1 0.196182 -0.000397949 0.00205778 0.196193 
412 1 0.126588 -0.0364815 -0.00990627 0.132112 
820 1 0.132751 0.030007 0.0931797 0.164942 
585 1 -0.097793 -0.0277358 -0.112383 0.151534 
3609 2 0.0883715 -0.121914 0.0289417 0.15333 
719 1 -0.0155763 0.0450688 -0.0229752 0.0529309 
608 1 0.0447727 0.0746508 0.0673296 0.110048 
106 1 0.0101852 0.0504962 0.0545459 0.0750257 
1047 1 -0.126312 -0.0476989 -0.037391 0.1401 
3573 2 0.0330245 0.0493401 -0.0806148 0.100119 
751 1 -0.0114765 -0.0179238 -0.0845799 0.0872165 
259 1 0.0766836 -0.02669 -0.00337264 0.0812656 
245 1 -0.0685441 -0.0437503 -0.00700424 0.0816176 
613 1 -0.0577238 -0.0740159 0.105918 0.141524 
4296 2 -0.017948 0.0567027 0.0258995 0.06487 
272 1 -0.108639 -0.13207 -0.0381146 0.175208 
4239 2 -0.10888 -0.098906 -0.0820679 0.168441 
88 1 0.087413 0.106541 0.106405 0.174109 
4 1 0.0673081 0.000342175 -0.07299 0.0992876 
361 1 0.115328 0.10327 -0.154678 0.218839 
358 1 -0.0615541 0.00538192 0.0278666 0.0677821 
194 1 0.0304148 0.0424374 -0.0999453 0.112761 
2373 1 0.0204051 0.00235062 -0.101362 0.103422 
1982 1 0.0464221 0.0255851 0.0423736 0.0678611 
3953 2 0.00847242 0.0435905 0.0977833 0.107394 
414 1 0.0241607 0.0295667 -0.0992345 0.106327 
3186 1 0.0987615 -0.0669527 -0.0111128 0.119833 
177 1 0.0655197 -0.0544641 0.0195022 0.0874043 
1962 1 -0.0262931 0.0773406 0.144814 0.166265 
706 1 -0.000429989 0.0353798 -0.032022 0.0477213 
1544 1 0.0171593 -0.12894 0.0743112 0.149807 
4160 2 -0.0286937 0.0587184 -0.0330129 0.073219 
19 1 -0.0627518 0.0510636 -0.105944 0.133302 
3624 2 -0.0297332 -0.0128326 -0.0778674 0.0843331 
115 1 0.0733735 -0.0466033 -0.0796368 0.117888 
1102 1 -0.0609283 -0.0348938 0.047778 0.0849269 
2048 1 0.0984718 -0.0175215 -0.0186994 0.101751 
649 1 0.0337382 0.10717 -0.0302581 0.116359 
113 1 0.00632714 -0.0418353 0.0128087 0.0442074 
1150 1 -0.00788525 0.00705064 0.0520782 0.0531416 
620 1 0.0152505 -0.0696948 -0.0133467 0.0725815 
739 1 -0.0413561 -0.0412598 -0.0469184 0.0749268 
2412 1 0.00607299 0.0296869 -0.0126889 0.0328512 
3746 2 0.102935 0.0314948 -0.171841 0.202773 
1225 1 -0.0156533 0.0384974 0.115992 0.123212 
241 1 0.118551 -0.0171197 0.00475477 0.119875 
83 1 0.0211954 -0.0136992 -0.0121479 0.0280087 
1006 1 0.0496078 0.00537521 -0.00633281 0.0502984 
4046 2 -0.0728743 -0.0982228 -0.0320113 0.126424 
96 1 -0.016858 -0.146817 0.037398 0.15244 
411 1 0.111968 0.0506269 0.0727489 0.142802 
2454 1 -0.0706922 0.0106615 0.0444534 0.0841853 
404 1 -0.0792679 0.0874151 0.0812564 0.143274 
226 1 0.0412477 -0.0137597 0.0647388 0.077986 
534 1 0.0511882 -0.0390221 0.122374 0.138269 
3538 2 -0.0466647 0.0658957 -0.0580038 0.0994197 
761 1 0.0604391 -0.039803 0.0670231 0.098637 
246 1 0.0504188 -0.047405 0.0146278 0.0707337 
2229 1 -0.028526 -0.147561 -0.0139514 0.15094 
146 1 0.00216052 -0.0827587 -0.0612927 0.103007 
3608 2 0.0320872 0.000170218 0.0154471 0.0356122 
503 1 -0.00208298 -0.00395254 0.0187721 0.0192965 
505 1 0.13144 -0.051644 0.0202267 0.142662 
1430 1 -0.0638143 -0.0557961 -0.0533728 0.10017 
97 1 -0.0769103 0.0510167 -0.103224 0.138467 
1723 1 0.0335648 0.00359738 -0.0928512 0.0987971 
3561 2 0.0625195 0.173724 -0.0570241 0.193237 
20 1 -0.0708942 -0.0430444 0.0121253 0.0838202 
263 1 -0.0550166 0.155338 -0.00719493 0.16495 
817 1 0.103818 -0.0793007 0.0197427 0.132123 
1034 1 0.0125908 0.0347441 0.0154074 0.0400384 
353 1 0.0371255 -0.035619 0.17974 0.186958 
1260 1 0.050236 0.119631 -0.0420272 0.136387 
998 1 0.0441615 0.107085 -0.0709155 0.135818 
1932 1 0.130348 -0.145746 -0.0405771 0.199697 
36 1 0.105586 -0.162853 -0.0536028 0.201352 
38 1 0.0319315 0.0315816 -0.0331467 0.0558187 
3130 1 -0.0590799 -0.0462305 -0.0579166 0.0947735 
1973 1 0.0929593 0.0312411 0.143138 0.173511 
307 1 0.0621162 -0.0371869 -0.0106649 0.073178 
2714 1 0.0725795 0.0291308 0.0210049 0.080979 
28 1 0.0836083 0.0426049 -0.0023035 0.093866 
1937 1 0.00452206 0.0586796 -0.0576581 0.0823906 
562 1 -0.0764298 -0.116436 -0.00406602 0.139339 
3011 1 -0.0387326 0.00805305 -0.0134295 0.0417781 
410 1 0.0790956 -0.0859004 0.0418861 0.124054 
693 1 0.077292 0.0872886 0.174141 0.209567 
367 1 -0.00598787 0.00397932 0.00742026 0.010332 
318 1 0.0396667 0.0366359 -0.107758 0.120529 
735 1 0.134045 0.000151875 0.0225101 0.135922 
600 1 -0.00834804 0.0400568 0.0267542 0.0488879 
3590 2 0.000310786 0.0818396 0.0228378 0.0849669 
3636 2 0.0536476 -0.0812939 0.0502621 0.109604 
26 1 -0.13394 0.0578158 0.0713221 0.162387 
1199 1 0.0239785 0.0605232 -0.0687151 0.0946562 
614 1 0.0100865 -0.0211664 -0.0510739 0.0561987 
459 1 -0.0269378 -0.0817564 -0.0641603 0.107361 
3645 2 0.071082 0.118858 0.0642724 0.152679 
574 1 0.0657101 -0.0526031 0.0918871 0.124612 
780 1 0.131171 0.00490122 0.00498035 0.131357 
161 1 -0.11104 -0.0357709 0.0674549 0.134757 
309 1 0.112345 0.0908642 -0.0074708 0.144684 
365 1 0.0431349 -0.15243 -0.0736833 0.174713 
191 1 -0.0732287 0.0910021 -0.00299674 0.116845 
1766 1 -0.0652729 0.00745595 -0.0324534 0.073276 
2775 1 0.0795158 -0.0559667 -0.070663 0.120201 
1030 1 0.150409 -0.105062 -0.00428382 0.183519 
1505 1 0.152358 0.167496 0.123076 0.257712 
3872 2 -0.0381137 0.0224483 -0.00148106 0.044258 
580 1 -0.0352099 -0.0348065 0.00896334 0.0503147 
2054 1 -0.0709749 -0.0857042 -0.0480137 0.121194 
2064 1 0.109533 0.0119522 -0.0465312 0.119606 
529 1 -0.0119649 0.0425398 -0.0868526 0.0974483 
402 1 -0.0228166 0.0620637 0.0306884 0.0728991 
124 1 -0.0466336 -0.107499 0.0520367 0.128213 
744 1 0.11449 -0.0112249 0.0459386 0.123873 
185 1 0.0677127 -0.030377 0.0861299 0.113693 
315 1 -0.0155386 -0.0374536 -0.0411425 0.0577661 
655 1 -0.0148802 -0.0643795 0.158843 0.172039 
765 1 -0.00905555 0.0562214 0.0252199 0.0622807 
140 1 0.0179855 0.0929228 -0.139748 0.168783 
59 1 -0.0337249 0.00110728 0.0716288 0.0791788 
54 1 0.00601817 0.0402535 0.0200989 0.0453931 
3506 2 -0.0330931 0.123995 -0.108077 0.167781 
666 1 -0.0162086 -0.158393 0.0640088 0.171605 
43 1 0.0874853 0.084577 0.0867209 0.149424 
334 1 -0.0473206 -0.0409677 0.0338262 0.0711463 
267 1 0.146653 0.0305315 -0.0926068 0.176111 
99 1 0.072195 0.112523 0.076436 0.154 
1189 1 -0.104039 -0.0287747 -0.172799 0.203744 
201 1 -0.0337607 -0.0835286 -0.0521712 0.104109 
380 1 0.010006 0.124602 -0.162806 0.20526 
1777 1 0.00957381 -0.0176638 -0.0519756 0.0557237 
2597 1 0.248369 -0.0260033 0.0147469 0.250161 
2484 1 0.133642 -0.0421559 -0.058594 0.15189 
308 1 -0.00574752 -0.00629915 -0.0600419 0.0606444 
3918 2 -0.0406263 0.113872 0.070894 0.140154 
89 1 -0.093425 0.0564504 -0.0221726 0.111384 
300 1 -0.0132623 -0.000867683 0.00898165 0.0160409 
3582 2 0.0379734 0.0101771 -0.00952311 0.0404505 
712 1 -0.0752027 0.0702603 0.0161979 0.104184 
3836 2 -0.0172446 0.0633719 -0.0625012 0.090663 
268 1 -0.0155915 -0.0174983 0.0219514 0.0321115 
788 1 -0.0269064 0.113135 -0.086493 0.144929 
4091 2 -0.00674628 0.155447 -0.0125143 0.156095 
371 1 0.0171913 0.0734345 0.120644 0.142278 
3505 2 0.0579318 -0.0196322 0.0312958 0.0687091 
266 1 0.120881 -0.0780701 -0.081096 0.165178 
3571 2 0.000924618 -0.0539277 0.0710297 0.0891867 
637 1 -0.0109849 -0.00104733 -0.0886678 0.0893518 
157 1 -0.0633679 -0.0135158 0.0891083 0.110175 
257 1 0.0168578 0.0138455 0.011697 0.0247528 
571 1 -0.0238784 0.0445712 -0.00851778 0.0512769 
665 1 -0.153266 -0.0277372 0.170669 0.231058 
448 1 -0.124834 -0.0915825 0.0239456 0.156666 
827 1 0.0808359 0.0972603 0.0179906 0.127741 
3475 2 0.0785646 0.0404408 0.0577989 0.105587 
73 1 -0.0358948 0.0781563 0.00435791 0.0861153 
373 1 0.101295 -0.00341746 0.0960737 0.139652 
247 1 0.0312171 -0.0332156 -0.0588132 0.0744095 
107 1 0.0633978 0.0408987 -0.0505427 0.0908105 
675 1 -0.0594368 0.0750285 -0.107289 0.143781 
434 1 0.012629 0.0676279 -0.00194316 0.0688244 
159 1 -0.0643652 0.0708288 -0.0246865 0.0988384 
32 1 0.0707493 0.109155 0.00606873 0.13022 
3579 2 0.0738372 -0.0572032 -0.0874067 0.127922 
394 1 -0.0560921 0.0118423 0.0574801 0.0811821 
260 1 -0.0285502 0.0659704 0.0209489 0.0748737 
3972 2 -0.0723981 0.045374 0.089123 0.123463 
1801 1 -0.0589594 0.0359489 0.0614278 0.0924225 
2122 1 -0.0142432 0.0139242 0.149989 0.151306 
1966 1 -0.00947055 -0.0724981 -0.0998311 0.123741 
291 1 -0.0109675 0.0152397 0.0349955 0.0397142 
2047 1 0.0862199 0.0366504 0.0533154 0.107795 
1899 1 0.0291371 0.0627759 -0.00117673 0.0692183 
622 1 -0.0418504 0.095311 -0.0016927 0.104108 
1993 1 -0.0141717 -0.0085412 -0.00120036 0.01659 
62 1 0.0216482 0.0561721 0.0596676 0.0847594 
2187 1 -0.057513 0.00972603 -0.107811 0.122579 
4318 2 0.0797952 0.00908216 0.000172837 0.0803106 
44 1 -0.00851199 -0.00246132 0.0903201 0.0907537 
824 1 0.0419823 -0.0108818 0.0670901 0.0798875 
1282 1 0.00469654 -0.00196423 0.112182 0.112297 
3626 2 0.123683 0.0841282 -0.0287901 0.152328 
819 1 0.0467267 0.0777264 0.0794712 0.120584 
773 1 -0.122327 -0.151163 0.0465401 0.199951 
270 1 -0.0372881 -0.0552887 -0.0249512 0.0712025 
14 1 -0.0949119 -0.0399993 -0.0177238 0.10451 
3540 2 0.0602488 -0.0102958 -0.0111208 0.0621256 
997 1 0.0694655 -0.0886653 -0.0445724 0.121135 
4275 2 -0.0345637 -0.0756384 -0.139756 0.162627 
164 1 0.0422363 0.0598995 0.157746 0.173941 
234 1 0.0379447 -0.0248091 0.083339 0.094872 
1125 1 -0.0161278 0.00403913 -0.0734824 0.0753398 
3985 2 -0.0507805 -0.0112574 0.0558231 0.0762994 
328 1 0.0260826 9.5579e-06 -0.0456605 0.052585 
3474 2 0.0103439 0.00301248 -0.0619861 0.0629154 
543 1 -0.0819821 0.00833047 -0.00254434 0.0824436 
293 1 0.104888 -0.0684718 0.0857912 0.151822 
3458 2 0.0966543 -0.0428118 0.0984647 0.144465 
390 1 -0.00850316 -0.0187283 -0.0741077 0.0769091 
3706 2 0.10079 -0.201379 -0.102674 0.247495 
2169 1 0.0845516 0.107186 -0.0416913 0.142744 
1786 1 0.0245061 0.0131175 -0.0637628 0.069558 
1478 1 -0.0243466 0.0406097 0.148105 0.15549 
87 1 0.0281129 0.000863086 -0.0438444 0.0520904 
4090 2 -0.0377477 -0.0419718 0.0404604 0.0694519 
142 1 -0.000179955 0.0268597 0.0326157 0.0422523 
1650 1 -0.0817812 -0.080359 -0.0887781 0.145008 
153 1 0.0360976 0.0114053 0.0100733 0.0391738 
374 1 0.0462971 -0.0358598 -0.0562138 0.0811747 
602 1 0.0217481 -0.0815135 -0.0922542 0.125013 
1277 1 -0.0648002 0.00715423 0.0339801 0.0735179 
76 1 0.0139976 -0.0438597 0.130374 0.138264 
1370 1 0.0615829 -0.0235147 0.0923601 0.113472 
221 1 -0.0185297 0.0882635 -0.0162445 0.0916388 
604 1 -0.0586591 0.0513396 0.0973466 0.124712 
1161 1 -0.0625264 -0.0669059 0.00647837 0.0918037 
1718 1 -0.115382 0.0351589 -0.135107 0.181116 
178 1 -0.0306978 -0.240781 -0.0263114 0.244152 
295 1 -0.1483 -0.0729466 0.00563468 0.165366 
1472 1 -0.0939705 -0.0137807 -0.00301733 0.0950235 
4159 2 -0.0034125 -0.0311466 -0.0265077 0.0410416 
3467 2 0.109393 -0.0181659 -0.00764164 0.111154 
3531 2 -0.0474301 -0.0819828 0.134886 0.164818 
2720 1 -0.0664385 0.0904745 -0.0700287 0.132302 
1851 1 -0.0206472 0.0042288 -0.00456175 0.0215638 
732 1 -0.00457981 -0.0849723 0.0243855 0.0885207 
4009 2 -0.0514552 0.14206 -0.0155497 0.15189 
3878 2 0.0536107 0.0541559 -0.0359437 0.0842551 
3185 1 -0.191023 -0.0240609 0.0319593 0.195167 
110 1 -0.0663653 0.00231191 0.0360311 0.0755509 
2963 1 -0.0461658 0.01093 -0.0333462 0.0579889 
2608 1 -0.0365369 0.00251297 -0.0175535 0.0406126 
3301 1 0.0242513 0.0138814 0.0971823 0.10112 
3759 2 -0.0344932 -0.0488491 -0.030643 0.0671938 
4171 2 -0.0752943 0.0244957 0.0232689 0.082527 
2118 1 -0.00249662 0.0715949 -0.0310686 0.0780854 
1742 1 0.0172123 -0.0233603 0.0409257 0.0501685 
642 1 0.0323934 -0.179155 0.0351657 0.185425 
3366 1 -0.0414018 0.0271525 0.102938 0.114226 
144 1 0.142174 0.168086 0.0229837 0.221348 
681 1 0.0600463 -0.0329152 -0.119598 0.137814 
1666 1 0.0794782 -0.065265 -0.0312567 0.107486 
183 1 -0.108417 -0.100595 -0.0414499 0.153595 
694 1 -0.161467 0.00655518 0.0685584 0.175542 
444 1 -0.0515817 0.051329 -0.137198 0.155302 
869 1 -0.0557304 -0.149472 0.137662 0.210709 
920 1 -0.0294216 -0.123159 -0.0218632 0.128498 
53 1 0.0652639 -0.0091745 0.0468367 0.0808531 
1450 1 -0.238807 -0.0394635 -0.087268 0.257297 
1579 1 0.0861199 -0.108194 0.0655302 0.153026 
51 1 0.126115 0.0175807 -0.0351545 0.132098 
4187 2 -0.115559 -0.0846913 -0.171072 0.223141 
1694 1 -0.00274432 -0.127069 0.183735 0.223411 
1590 1 0.0323157 0.016956 -0.0745175 0.0829739 
2005 1 0.0169064 -0.0493723 0.128096 0.138318 
736 1 -0.0993413 0.00705046 -0.0276985 0.103371 
363 1 0.102405 0.00211226 0.016102 0.103684 
230 1 0.0175464 0.0282503 0.113111 0.117899 
2538 1 0.062052 -0.0504975 -0.0481074 0.0933529 
357 1 -0.0691597 2.11658e-05 -0.0279515 0.0745945 
3849 2 0.159057 -0.0459536 -0.0846668 0.185955 
4102 2 0.0102152 -0.124881 0.0460037 0.133476 
1032 1 0.072421 0.0209152 0.0472858 0.0889842 
78 1 0.00273504 0.06158 -0.036822 0.0718013 
564 1 0.236525 -0.048465 0.101193 0.261788 
797 1 0.155058 -0.0611513 -0.0459752 0.172905 
1476 1 0.210833 -0.00121858 -0.0292103 0.21285 
872 1 -0.110999 -0.00608681 -0.0936862 0.145379 
475 1 -0.0355947 -0.0376435 0.0200955 0.0555684 
4119 2 0.228728 -0.112899 -0.100142 0.274028 
576 1 -0.15641 0.0195982 0.0567574 0.16754 
507 1 0.067458 -0.0900728 0.0147581 0.113497 
248 1 0.0693933 -0.0440566 -0.0137182 0.0833342 
3597 2 -0.0755086 0.0666739 0.0937574 0.137613 
539 1 0.0181877 -0.00719836 0.0695977 0.0722942 
63 1 0.0704298 0.016622 0.0934067 0.118159 
57 1 -0.0529019 -0.0281667 0.0152496 0.0618428 
854 1 -0.0282552 0.0482543 0.0154096 0.0580025 
668 1 0.107379 -0.12867 -0.114006 0.202691 
385 1 -0.0996528 -0.239347 0.0559469 0.265232 
752 1 0.0276566 0.0480184 -0.0104314 0.0563868 
3650 2 -0.0164671 0.14849 -0.0444866 0.155883 
3736 2 -0.0882011 -0.160521 0.0128879 0.18361 
254 1 -0.132711 -0.153996 0.00695744 0.203409 
3637 2 -0.00955337 0.00247235 0.095654 0.0961617 
731 1 0.00103405 -0.0188279 -0.0320045 0.0371463 
2304 1 0.104605 -0.1195 -0.0429548 0.164522 
610 1 -0.166804 0.00875643 -0.111999 0.201108 
292 1 -0.13171 0.0147931 0.00941553 0.132873 
313 1 -0.118202 0.010931 0.0378088 0.124583 
2133 1 0.0092484 -0.135173 -0.0165501 0.136496 
646 1 -0.107058 -0.0285243 -0.0815564 0.137573 
271 1 0.0158074 0.0977515 0.0658325 0.118908 
584 1 -0.0498854 0.100694 -0.0960935 0.147857 
3649 2 -0.0965872 0.0349982 0.0394427 0.110044 
1148 1 -0.03609 0.116778 0.141129 0.186701 
779 1 -0.0775901 -0.0622561 0.00408924 0.0995629 
621 1 -0.113913 0.0223342 0.0685443 0.134808 
16 1 -0.0382244 0.0194591 0.139631 0.14607 