ITEM: TIMESTEP
36
ITEM: NUMBER OF ATOMS
4320
ITEM: BOX BOUNDS pp pp pp
0.0000000000000000e+00 1.9309999999999999e+01
0.0000000000000000e+00 1.9309999999999999e+01
0.0000000000000000e+00 9.6549999999999994e+00
ITEM: ATOMS id type c_displacement[1] c_displacement[2] c_displacement[3] c_displacement[4] 
4012 2 0.0150832 -0.0622569 0.00725057 0.064467 
2361 1 -0.0210713 -0.0321825 -0.0441511 0.0585579 
79 1 -0.0592889 -0.071583 0.0310705 0.0980034 
781 1 0.0556796 -0.0230846 0.03701 0.0707308 
461 1 -0.00671884 -0.00736721 -0.0327056 0.0341918 
3704 2 -0.00767625 -0.0555142 0.0233655 0.0607181 
629 1 -0.0558151 0.039579 0.0339383 0.0763782 
1571 1 0.00458708 0.00566339 -0.0275012 0.0284506 
58 1 0.102853 0.0263622 0.134586 0.171427 
2372 1 -0.0521913 -0.0444938 -0.0147891 0.0701594 
372 1 -0.00827724 -0.00840687 -0.0195359 0.0228219 
3504 2 -0.00291421 -0.0722651 0.0320723 0.0791162 
4130 2 -0.00378543 -0.0214171 -0.0525244 0.0568492 
1262 1 0.0385649 0.0865703 -0.0725723 0.119367 
907 1 -0.0759477 -0.0544274 -0.12511 0.156151 
3659 2 0.0274369 0.155159 -0.0826722 0.177938 
1298 1 0.074597 0.0444159 -0.082561 0.119807 
1716 1 0.0104616 0.0902662 -0.0509815 0.104195 
1182 1 0.0122638 0.0102784 0.00822481 0.0179915 
683 1 -0.00597057 -0.0293574 0.048666 0.0571479 
1958 1 0.0278946 -0.0676785 0.0556397 0.0919471 
1554 1 0.0107266 -0.0672558 -0.0534086 0.0865499 
1037 1 -0.0286776 -0.157378 0.018191 0.161001 
749 1 -0.0943401 -0.0473036 0.0439844 0.114334 
3628 2 0.057646 0.0484757 0.0275925 0.0802141 
946 1 -0.0328732 0.00368517 -0.0534834 0.0628864 
2232 1 0.0232033 -0.0129919 -0.0809389 0.0851956 
7 1 0.0324761 0.0101289 0.00882091 0.035144 
501 1 0.0177532 0.0913526 -0.0803304 0.122937 
179 1 -0.0223852 -0.0248539 -0.0972709 0.102861 
714 1 -0.0461243 -0.0398153 0.112115 0.127602 
4166 2 0.00960152 -0.0503544 -0.0307509 0.0597777 
276 1 -0.0276772 0.0382828 0.0842788 0.0966153 
767 1 -0.0620656 -0.0189119 0.0565578 0.0860731 
3890 2 -0.142633 -0.0378768 -0.0921375 0.173978 
6 1 0.000558261 0.0933499 -0.0110128 0.093999 
2086 1 -0.0159615 -0.00028594 0.0439547 0.046764 
224 1 0.0134049 -0.023738 0.00119959 0.0272878 
3660 2 0.0380649 0.0354376 0.0270484 0.0586206 
596 1 -0.0658053 -0.0107798 -0.0195059 0.0694768 
1214 1 -0.000528633 -0.0520581 -0.0469858 0.0701284 
3686 2 0.0383429 0.0262997 0.0128184 0.0482303 
427 1 -0.0569662 0.0733678 0.0737612 0.118612 
350 1 0.00867533 0.0525765 0.0092061 0.0540768 
85 1 -0.0299978 -0.00640059 0.00110651 0.030693 
598 1 -0.0355913 -0.0226505 0.105036 0.113191 
3554 2 0.00845762 -0.0231592 -0.0287099 0.0378436 
29 1 -0.030618 0.058387 0.0383824 0.076287 
464 1 -0.0295046 0.0277928 -0.0417912 0.0582191 
3619 2 -0.0307136 0.034901 0.0714929 0.0852798 
12 1 0.0409477 -0.161217 0.0337214 0.16972 
364 1 -0.0949409 0.0264435 -0.0637163 0.117358 
1849 1 -0.0857886 -0.0641033 0.0075757 0.107361 
3663 2 -0.11976 0.0446786 -0.0623858 0.142235 
3517 2 0.032864 0.0112223 0.0783707 0.0857201 
25 1 0.120624 -0.0275829 -0.030091 0.127344 
4163 2 -0.0041663 0.0189642 -0.0189172 0.0271083 
399 1 0.00698621 0.0123473 -0.0182235 0.0230946 
4265 2 -0.038276 0.0577489 0.0222991 0.0727822 
527 1 0.00821683 -0.0172878 -0.0308 0.0362633 
200 1 0.0775764 0.0287818 0.0444126 0.0939094 
1951 1 0.102207 0.0782949 0.0381439 0.134281 
644 1 0.0339649 -0.0419231 0.0553318 0.0772837 
193 1 0.0124241 0.0807774 -0.0130309 0.0827596 
550 1 0.00077664 -0.0317227 -0.0223687 0.0388238 
69 1 0.00462406 -0.0265377 0.0158176 0.0312383 
842 1 -0.0674705 0.0354207 -0.0764696 0.107956 
578 1 -0.0385437 0.0229833 0.00221325 0.0449305 
172 1 -0.00240319 -0.0750625 0.0217619 0.0781904 
381 1 -0.00726793 0.0533362 -0.0782759 0.0949984 
3524 2 0.0569661 -0.0895257 0.111955 0.154253 
688 1 -0.0630289 0.0789967 -0.0116683 0.101731 
3651 2 -0.0236389 0.0495458 0.0144337 0.0567619 
2367 1 0.0398513 0.0250027 -0.00429554 0.047241 
1244 1 -0.0627007 0.0240271 0.0306184 0.0737981 
796 1 -0.0934831 0.0816376 -0.0290937 0.127476 
691 1 0.0528845 -0.0121931 0.0163008 0.0566671 
421 1 0.0222446 0.0258731 0.0990624 0.104774 
597 1 -0.0482157 0.0562838 -0.0175132 0.0761534 
3617 2 0.0126548 0.0143464 -0.0515564 0.0549912 
120 1 0.0622285 0.0552024 0.0305976 0.0886336 
769 1 -0.0409654 0.0118678 0.0495916 0.065409 
2142 1 -0.00701456 0.0206047 -0.0194263 0.0291743 
3611 2 0.115673 0.0541902 0.105727 0.165816 
1915 1 -0.0250733 0.037765 0.0108356 0.0466077 
2140 1 -0.0189082 0.00300078 0.0875759 0.0896441 
3828 2 0.0939872 0.0209399 0.0355001 0.102627 
3204 1 0.00629034 0.0733666 0.0300331 0.0795249 
175 1 0.0766276 0.0507599 -0.0350998 0.0983887 
2011 1 0.0736145 0.0247064 -0.0384024 0.086627 
75 1 -0.00782657 0.0706779 0.0107827 0.0719228 
547 1 -0.0386465 -0.00611773 -0.0533789 0.0661837 
4316 2 -0.039465 0.0264894 -0.0158581 0.0501065 
559 1 0.0318189 0.0394281 -0.0284386 0.0581014 
717 1 0.00947587 0.0541425 -0.0344312 0.0648592 
242 1 0.0094005 -0.0241475 0.0554734 0.0612272 
3510 2 -0.0486295 0.0240302 0.0552299 0.077412 
130 1 0.0627007 -0.039676 0.0971353 0.122233 
143 1 -0.0157619 0.0381708 -0.0547452 0.0685747 
202 1 -0.11135 -0.0367181 -0.0519971 0.12826 
182 1 -0.105322 0.0435349 -0.00924898 0.114339 
84 1 0.0331812 -0.052357 -0.0520108 0.0809158 
3633 2 0.0181103 -0.0611306 0.051089 0.0817008 
35 1 -0.115199 -0.0332532 0.0954041 0.153227 
3612 2 0.021855 0.0404571 -0.0781495 0.0906739 
40 1 0.117832 0.0749663 0.0584638 0.151401 
4005 2 0.0477563 -0.0695642 0.0206896 0.0868787 
718 1 -0.0272109 0.0215061 -0.0429509 0.0552062 
134 1 -0.0135862 -0.0326961 0.0616728 0.0711136 
511 1 -0.0370384 -0.0719759 0.0574581 0.0992664 
757 1 0.0551665 0.125115 -0.00122413 0.136743 
3555 2 -0.058144 0.0333046 0.0241398 0.0712225 
3481 2 -0.027846 0.0104878 -0.0343612 0.0454543 
135 1 0.0133258 -0.0477442 -0.0109213 0.0507579 
369 1 0.0290646 -0.03035 0.102648 0.110916 
2148 1 -0.0664473 -0.0378916 -0.0100289 0.0771466 
3462 2 0.0392055 -0.0663166 -0.127012 0.14855 
1914 1 -0.0142538 0.0236178 0.00882678 0.0289635 
3661 2 0.0608764 -0.0849752 0.0189647 0.106237 
1871 1 0.0188116 0.0223818 -0.0320364 0.0433722 
320 1 -0.0357571 -0.0199125 -0.0363191 0.0547189 
582 1 -0.00524676 -0.0915768 -0.0077263 0.0920518 
766 1 -0.0310269 0.0133529 3.0423e-05 0.0337783 
3552 2 -0.00866302 -0.048156 0.014397 0.0510032 
2290 1 -0.0389569 0.0372566 0.039366 0.0667486 
1794 1 0.0143961 0.00598026 0.0423296 0.0451088 
753 1 -0.071574 0.034165 0.0189572 0.0815443 
396 1 -0.00703055 -0.0221145 0.0923253 0.0951968 
496 1 -0.00558312 0.0358848 -0.0733032 0.0818062 
480 1 -0.0374701 -0.0487918 0.0635307 0.0884353 
253 1 0.0455919 0.00108813 -0.00181183 0.0456408 
4033 2 -0.00669851 0.0205592 -0.0381123 0.043819 
347 1 -0.0569866 0.0201646 0.0330024 0.0688712 
586 1 -0.0666005 0.0354647 -0.0979266 0.123624 
3671 2 0.0895016 0.00869663 -0.08357 0.12276 
37 1 -0.00990732 -0.0656069 0.0116364 0.0673634 
782 1 0.0264573 -0.0847273 -0.0103443 0.0893628 
481 1 0.0494219 -0.00359811 -0.0628049 0.0799996 
392 1 -0.049428 0.0378843 -0.0890593 0.108673 
333 1 0.0374406 -0.0442201 -0.0196379 0.061179 
342 1 -0.00347962 7.00863e-06 -0.0336131 0.0337927 
1179 1 -0.00992006 0.00597524 -0.0513961 0.0526846 
517 1 -0.0107572 -0.0551597 -0.0294044 0.0634266 
1824 1 0.0572201 -0.0377115 0.104728 0.125157 
34 1 0.0221217 0.0191004 0.0340127 0.0448448 
398 1 0.00344703 -0.025379 -0.0471613 0.0536672 
170 1 -0.0605714 -0.0515288 -0.0431672 0.0904849 
235 1 0.01926 -0.113151 0.0389424 0.121205 
3852 2 -0.0176269 -0.0389357 -0.00952695 0.0437888 
816 1 0.0367199 -0.00595539 -0.0249094 0.0447694 
3931 2 -0.088579 -0.0924069 0.103986 0.164919 
274 1 -0.0291333 -0.0403447 -0.0135048 0.0515638 
30 1 0.0204888 -0.00180812 -0.0247973 0.0322175 
2066 1 0.0650893 -0.0433995 0.0961143 0.123928 
1082 1 0.0151352 -0.0311932 0.0456556 0.0573282 
1372 1 0.00526935 -0.0337477 0.0806491 0.087584 
1265 1 0.0709163 -0.0229087 -0.0774938 0.107514 
601 1 0.0269658 0.0536593 0.0405889 0.072484 
540 1 0.0158891 0.0227874 0.024876 0.03729 
589 1 -0.0357171 0.113901 0.0594112 0.133338 
958 1 0.0716985 0.0015672 -0.0253513 0.0760646 
504 1 -0.0741658 0.0335389 -0.0126922 0.0823804 
1349 1 -0.033361 0.038939 -0.0344362 0.0617661 
9 1 0.00501255 -0.0920617 0.0326714 0.0978156 
149 1 0.00826202 0.062953 0.00500299 0.0636896 
163 1 0.0275099 -0.0604206 -0.0015641 0.066407 
4247 2 0.0115473 -0.0419377 -0.0522669 0.0679996 
1584 1 0.132244 -0.0128808 -0.0971379 0.164591 
3570 2 -0.0258595 -0.0628925 0.00616867 0.0682806 
237 1 0.0181399 0.0421319 0.0175973 0.0491306 
490 1 -0.0187466 -0.0509852 -4.70507e-05 0.0543224 
50 1 -0.0447359 -0.0687946 0.0325436 0.0882784 
152 1 0.0339102 0.0121947 -0.0132616 0.038399 
3652 2 -0.0052305 -0.0193279 0.00161654 0.0200882 
3823 2 0.00930596 0.0717486 -0.0840787 0.110922 
902 1 0.0290798 0.058177 -0.0202358 0.0681152 
3574 2 -0.0292613 0.0483244 -0.0545891 0.0785585 
770 1 -0.00926292 -0.0574304 -0.0233409 0.0626806 
154 1 -0.000779083 -0.019589 -0.019283 0.0274986 
116 1 0.0783618 -0.0550114 0.0279692 0.0997452 
710 1 -0.0728969 -0.120243 -0.0488547 0.148859 
1956 1 -0.00906197 0.0444144 -0.0613266 0.0762608 
1810 1 -0.103156 -0.0349745 0.0798205 0.13504 
2072 1 -0.0372527 -0.0253287 -0.0147401 0.0473981 
1649 1 -0.0218147 0.00662788 -0.0387372 0.0449486 
186 1 -0.0382983 -0.0108802 0.0751205 0.085019 
1063 1 -0.0311804 0.0514362 -0.147917 0.159679 
432 1 -0.0835587 0.0712334 -0.0933261 0.144104 
2495 1 -0.078694 -0.0964437 0.0701229 0.142868 
3896 2 0.00496583 -0.0108979 -0.0437943 0.0454022 
1071 1 -0.0166182 -0.0353266 -0.0457754 0.0601625 
913 1 0.054271 -0.0665173 0.0337194 0.0922328 
1068 1 0.0391571 0.022049 -0.0033227 0.0450608 
265 1 -0.0596424 0.0183997 -0.0261221 0.0676619 
1287 1 0.0185041 0.0998559 0.00500689 0.101679 
3799 2 0.0369679 -0.0432511 -0.0863109 0.103377 
554 1 0.0354934 -0.0425259 -0.066722 0.0867183 
1414 1 -0.0244844 0.037832 -0.0717094 0.0846935 
213 1 0.000618912 -0.0303186 0.00788843 0.0313341 
341 1 -0.0586547 -0.0342609 -0.0343155 0.0761035 
3682 2 -0.0401468 0.0161009 -0.0450181 0.062431 
754 1 -0.052271 0.0884519 -0.00233543 0.102769 
112 1 -0.0607819 0.0424376 0.00529793 0.0743199 
1041 1 -0.0211184 -0.0734494 0.0238696 0.080066 
119 1 0.00566334 -0.00501618 0.0745529 0.0749358 
415 1 0.00695371 0.0482009 -0.03839 0.0620119 
995 1 -0.0474948 0.0366862 0.0214804 0.063742 
4128 2 -0.02545 -0.0390201 0.110433 0.119857 
8 1 0.0582113 0.0568187 -0.00294533 0.0813977 
94 1 0.00718014 -0.0632196 0.00188561 0.063654 
48 1 0.020457 0.0235657 0.00912419 0.0325128 
3998 2 0.017341 0.0384045 0.0464227 0.0626952 
3866 2 0.0445676 0.027054 -0.0125552 0.0536267 
2206 1 0.0200059 -0.00771436 -0.0179391 0.0279563 
3490 2 -0.0765843 -0.00239275 -0.0123949 0.0776178 
3072 1 0.000721358 -0.0463603 0.0536235 0.0708892 
3002 1 0.076683 0.0474447 0.0332471 0.0961075 
92 1 0.0221927 0.0900158 0.0898348 0.129096 
335 1 -0.0437453 0.0690828 -0.0486216 0.0951322 
4034 2 -0.133249 -0.120521 0.039769 0.184017 
1186 1 0.0199364 0.00481542 0.00759309 0.0218702 
1114 1 0.0725717 0.0360639 0.0286093 0.0859404 
1821 1 -0.0256216 -0.0525609 -0.0569109 0.0815963 
1922 1 0.00951692 -0.0791881 0.0166401 0.0814753 
451 1 -0.0798973 -0.0484796 -0.00354324 0.0935222 
3960 2 0.00371512 -0.0300313 0.0171549 0.0347846 
100 1 -0.0247861 0.0454439 -0.0616081 0.0804677 
1180 1 -0.00435387 -0.0457001 -0.0654115 0.0799132 
165 1 0.066639 -0.0187318 -0.00475832 0.069385 
388 1 -0.0652247 -0.0573648 -0.0335424 0.0931132 
3742 2 0.0748488 -0.039484 0.030827 0.0900646 
323 1 -0.0894113 0.107799 -0.0724541 0.157685 
288 1 -0.0472025 0.0118159 0.0106603 0.049813 
3942 2 -0.0498162 0.0476247 0.0845964 0.109116 
66 1 0.0506621 0.0355044 0.0484676 0.0785895 
340 1 -0.0145815 -0.0170537 -0.00757313 0.0236813 
138 1 -0.0250858 0.00730858 0.0167548 0.0310392 
879 1 0.0106964 -0.00213679 -0.0633224 0.064255 
3808 2 0.0560932 0.0092447 -0.00308265 0.0569334 
834 1 -0.018756 0.0167051 0.0205267 0.0324375 
18 1 -0.0560641 -0.0538921 -0.0884741 0.117793 
3679 2 0.0189824 -0.0246278 -0.013289 0.0338151 
52 1 0.0480423 -0.0135515 -0.0118106 0.0512951 
407 1 -0.0396584 -0.00877788 -0.0701457 0.0810571 
360 1 0.0498092 -0.0348289 -0.103545 0.120065 
2885 1 -0.0874653 -0.0612298 -0.0266462 0.110042 
3526 2 -0.00678416 -0.148678 -0.0418025 0.154592 
310 1 -0.0663622 -0.02749 0.00894896 0.0723859 
326 1 0.0769998 -0.00932612 0.0456491 0.0899988 
227 1 -0.0129747 -0.0217601 -0.0165536 0.0302633 
2068 1 -0.0813669 -0.0518211 -0.0960778 0.13615 
456 1 0.0179791 -0.00403035 0.0276958 0.0332648 
279 1 -0.0255565 0.0184484 0.0715479 0.078183 
305 1 -0.0667746 0.0168232 -0.0291073 0.0747603 
49 1 0.00566507 0.0668234 0.0446067 0.0805433 
3512 2 0.00134642 -0.077187 0.0427153 0.0882283 
11 1 -0.0471391 -0.123903 0.0108423 0.133009 
189 1 -0.0284139 0.0739015 0.0635542 0.101528 
2271 1 -0.0790889 -0.0274233 -0.0177242 0.0855642 
319 1 -0.0748005 -0.0431705 -0.00922263 0.0868555 
3566 2 -0.00622411 0.0541965 -0.044858 0.0706275 
71 1 -0.00865629 0.0157427 0.0119995 0.0216044 
1560 1 -0.0220687 -0.0387786 0.0462049 0.0642316 
190 1 -0.0028169 -0.0335569 0.0482585 0.0588463 
123 1 0.0594466 0.0157859 0.0534565 0.0814904 
27 1 -0.0381946 0.00219843 -0.0306806 0.0490404 
162 1 -0.015787 -0.00590696 -0.0884439 0.0900358 
255 1 -0.077125 0.0134765 -0.0353324 0.0858968 
304 1 -0.0788084 0.00257436 -0.0404421 0.0886168 
321 1 0.00158633 -0.0693122 0.126266 0.144048 
682 1 -0.0395198 0.0384243 0.0027785 0.0551902 
3469 2 0.0683663 0.059939 -0.0809479 0.121734 
3539 2 0.0303438 0.0405962 0.0695841 0.0860857 
128 1 0.0593124 -0.0334648 -0.0414073 0.079702 
3562 2 0.0940797 0.0294887 0.0577459 0.114259 
560 1 -0.0963319 -0.0491514 0.00918577 0.108536 
212 1 -0.0187041 0.0360427 -0.00857272 0.0415019 
355 1 0.0166751 0.0597518 0.103236 0.120441 
156 1 0.0632788 0.0497712 0.0625194 0.101932 
3620 2 -0.00619287 -0.0392978 -0.0049227 0.0400862 
1823 1 0.136419 -0.104928 -0.0800062 0.189792 
1805 1 -0.0147909 0.0715831 0.0818844 0.109763 
2599 1 -0.0335325 0.011662 0.00725218 0.0362357 
327 1 0.0161369 0.0096738 0.000750121 0.0188293 
137 1 0.0533955 -0.00502422 0.0618042 0.0818296 
2334 1 -0.0105296 0.0432593 0.0321398 0.0549109 
3698 2 0.0348655 -0.0693023 0.0176843 0.0795685 
555 1 0.000534178 -0.0405618 -0.0439209 0.0597879 
4178 2 0.0318005 -0.0483296 0.0373693 0.068873 
290 1 -0.00828321 0.0562356 -0.0177517 0.0595498 
284 1 -0.019433 0.00377119 -0.0537185 0.0572498 
3543 2 0.0166218 -0.00849888 0.034057 0.0388381 
366 1 0.028248 -0.0433506 0.0284207 0.0590335 
55 1 -0.0268291 0.0324503 -0.00945004 0.0431523 
273 1 -0.0163095 -0.0673284 -0.00410616 0.0693972 
3468 2 0.0517204 0.0213175 0.0302927 0.0636167 
316 1 0.0787794 -0.0329499 0.10056 0.131925 
81 1 -0.0613715 0.0221478 0.0260165 0.0702413 
322 1 0.0306622 -0.0151444 -9.30212e-05 0.0341984 
239 1 -0.0252945 0.0218929 -0.0526612 0.0623884 
734 1 -0.0486985 -0.0778731 -0.0361023 0.098687 
384 1 0.0877567 -0.0419952 -0.0501784 0.109466 
3476 2 -0.00785245 0.0848284 0.00643668 0.0854339 
311 1 0.00274214 -0.0366485 -0.0695625 0.0786738 
3471 2 -0.00822067 0.0211528 0.0177003 0.0287805 
1938 1 0.0182026 -0.0558619 -0.0106588 0.0597118 
139 1 0.112794 -0.0414234 -0.0103877 0.120608 
727 1 0.0498224 -0.0285782 0.0575388 0.0813001 
1885 1 0.00252004 0.0358857 -0.0681588 0.0770698 
2184 1 0.0848101 0.159566 -0.0964586 0.204837 
2494 1 -0.123708 -0.0635125 -0.121885 0.184915 
2091 1 -0.0380327 -0.0128317 -0.048599 0.0630318 
281 1 0.0423055 0.0830945 0.0930473 0.131728 
863 1 0.0167376 0.087691 -0.0110813 0.0899591 
176 1 -0.0771383 0.0608518 -0.0378168 0.105278 
3710 2 -0.00631716 0.059211 -0.0348418 0.0689913 
3572 2 0.00365261 -0.0766793 -0.0442991 0.0886311 
4197 2 -0.0691374 0.0392173 -0.0244124 0.0831501 
343 1 -0.0103255 -0.0359333 -0.0960109 0.103034 
282 1 -0.0155613 -0.0345796 -0.00527721 0.0382851 
1038 1 -0.0182045 0.0572101 0.011932 0.0612109 
408 1 0.141883 0.0756261 -0.0265429 0.162956 
412 1 0.12336 -0.0515979 -0.0113247 0.134195 
820 1 0.0883838 0.0046345 0.0251809 0.0920177 
585 1 -0.0548542 -0.0401239 -0.0591485 0.0900969 
3609 2 0.0389605 -0.0596547 0.00499278 0.071425 
719 1 -0.0191897 0.0631606 -0.0214375 0.0694052 
608 1 0.00385312 -0.00274994 -0.00403449 0.0062198 
106 1 -0.0188479 0.0558411 0.0410089 0.0717997 
1047 1 -0.0996231 -0.0259662 -0.0147221 0.103999 
3573 2 0.00483926 0.0241532 -0.0537011 0.0590813 
751 1 -0.0214672 -0.0170902 -0.0453002 0.0529625 
259 1 0.0552905 -0.0552201 0.0156781 0.0797001 
245 1 -0.0730484 -0.0164781 -0.0492106 0.0896063 
613 1 -0.0384744 -0.00862332 0.123591 0.129728 
4296 2 -0.0306424 0.0383002 0.022562 0.0539898 
272 1 -0.0903175 -0.0860228 -0.0111751 0.125228 
4239 2 -0.0213603 -0.0998135 -0.0497451 0.11355 
88 1 0.0591222 0.083784 0.065232 0.121534 
4 1 0.104361 -0.0110587 -0.0587597 0.120276 
361 1 0.0584649 0.0904749 -0.118986 0.160504 
358 1 -0.0311165 -0.0316848 -0.035056 0.0565782 
194 1 -0.00273718 0.0308189 -0.0673791 0.0741433 
2373 1 0.00451721 -0.0185398 -0.0746145 0.0770159 
1982 1 0.00608273 -0.0190507 -0.0011635 0.0200321 
3953 2 -0.00603056 0.0157609 0.0464373 0.0494084 
414 1 0.0148107 0.0137658 -0.0378009 0.0428691 
3186 1 0.068143 -0.0759957 0.023399 0.10472 
177 1 0.0545596 -0.0214671 0.0730029 0.0936323 
1962 1 -0.0384207 0.0439198 0.058583 0.0826866 
706 1 0.0320736 -0.00783505 -0.0279881 0.0432832 
1544 1 -0.0205962 -0.0517815 0.0145058 0.0575843 
4160 2 -0.0256818 0.00286734 -0.0119851 0.0284854 
19 1 -0.0312166 -0.0311292 -0.0781237 0.089704 
3624 2 0.00540225 -0.0153044 -0.0494985 0.0520914 
115 1 0.108058 -0.0699677 -0.0122721 0.129316 
1102 1 -0.0735278 -0.00392656 -0.00797117 0.0740628 
1492 1 0.0251009 0.0452668 0.0318082 0.0607527 
649 1 0.0501547 0.111716 -0.0486282 0.13176 
113 1 0.0394194 -0.00341128 -0.00916607 0.0406146 
1150 1 0.0314747 -0.0134955 0.0469231 0.058091 
620 1 -0.0611387 0.0151473 0.00658606 0.0633306 
739 1 -0.0809723 -0.0191494 0.0292813 0.0882078 
2412 1 0.0106686 0.0575639 -0.00218336 0.0585849 
3746 2 0.0706508 0.0241157 -0.128152 0.14831 
1225 1 0.0202393 0.0610674 0.0716384 0.0962856 
241 1 0.0728733 0.0370708 -0.00770664 0.0821228 
83 1 0.0317448 0.0322272 -0.0226388 0.050585 
1006 1 0.0230253 0.00560833 -0.00565626 0.0243641 
4046 2 -0.0674605 -0.0589739 -0.0405691 0.09836 
96 1 0.0283102 -0.0865099 -0.0070107 0.0912939 
411 1 0.0494012 0.0545186 0.0672101 0.0996491 
2454 1 -0.0420465 0.0069179 -0.0215362 0.0477449 
404 1 -0.0590939 0.0461688 0.0620278 0.0973196 
226 1 0.0568301 -0.0198519 0.0720207 0.0938656 
534 1 0.0353376 -0.0127144 0.0988169 0.105713 
3538 2 0.0130705 0.0357138 -0.0120614 0.0398972 
761 1 0.0607603 -0.0078893 0.0252453 0.0662675 
246 1 0.086885 -0.071557 0.0310418 0.11676 
2229 1 0.0145301 -0.0769712 0.0225737 0.0815185 
146 1 -0.00523363 0.012978 -0.0451986 0.0473152 
3608 2 0.065027 -0.0209016 -0.00290315 0.0683654 
503 1 -0.0371818 -0.00340432 0.0418798 0.0561069 
505 1 0.0797066 -0.0271393 -0.00378248 0.0842852 
1430 1 -0.0796983 -0.0313152 -0.00731505 0.0859416 
97 1 -0.0115476 0.0349194 -0.0530933 0.064588 
1723 1 0.0313899 -0.00677167 -0.0762979 0.0827801 
3561 2 0.0315717 0.094409 -0.0191779 0.101379 
20 1 -0.0550102 -0.075449 -0.0196736 0.0954239 
263 1 -0.0579484 0.103243 0.0146134 0.119293 
817 1 0.076094 -0.0500029 0.00860968 0.0914589 
1034 1 0.0210311 0.0154809 0.0156012 0.0304197 
353 1 0.0368622 -0.00407922 0.0816484 0.0896767 
1260 1 0.0503228 0.0806538 -0.018526 0.0968537 
998 1 0.0172086 0.0411612 -0.0430256 0.0619805 
1932 1 0.0692128 -0.108285 -0.0123297 0.129105 
36 1 0.0731274 -0.0885815 0.0253977 0.117641 
38 1 -0.02775 -0.0169259 -0.0728967 0.0798152 
3130 1 -0.00210997 0.0244907 -0.0390892 0.0461759 
1973 1 0.0706618 -0.0468778 0.120213 0.147112 
307 1 -0.0239438 -0.0578134 -0.0805832 0.102026 
2714 1 0.0873809 0.038298 0.0158466 0.0967124 
28 1 0.0269825 0.00704677 0.00169214 0.0279387 
1937 1 -0.00237724 0.0118529 -0.0366502 0.0385925 
562 1 -0.0651101 -0.0907169 0.0027213 0.111697 
3011 1 -0.0627476 -0.0162657 0.0136507 0.0662433 
410 1 0.0812201 -0.0245043 0.0256439 0.0886272 
693 1 0.0575096 0.100786 0.0476278 0.125434 
367 1 -0.0287482 0.0039696 -0.00634945 0.0297074 
318 1 0.0890894 0.0282782 -0.0288697 0.0978265 
735 1 0.0747134 -0.0369256 0.0202698 0.0857698 
600 1 -0.0277455 0.0670509 0.0389313 0.0823486 
3590 2 -0.0637863 0.0390932 -0.0615796 0.096897 
3636 2 0.0397792 -0.0999733 0.0410624 0.115166 
26 1 -0.0622072 0.0617681 0.0490109 0.100435 
1199 1 0.043524 -0.00364524 -0.0490317 0.0656638 
614 1 -0.0321844 -0.0365454 -0.00774604 0.0493093 
459 1 0.0533422 -0.0568348 -0.0494754 0.0923223 
3645 2 0.0619993 0.0886319 0.0385707 0.114836 
574 1 0.0287608 0.0508169 -0.0167016 0.0607329 
780 1 0.0798482 -0.0111349 -0.00904545 0.0811267 
161 1 -0.0381227 0.0452114 -0.0380164 0.070304 
309 1 0.105127 0.0471747 0.0217749 0.117266 
365 1 0.00053148 -0.103878 -0.0140065 0.104819 
191 1 -0.0492109 0.0640975 0.0129677 0.0818435 
1766 1 0.00805642 0.0829529 -0.0464566 0.0954165 
2775 1 -0.0029295 -0.080857 -0.0500447 0.0951362 
1030 1 0.0266429 -0.0316489 0.0442968 0.060611 
1505 1 0.0805783 0.106503 0.0914873 0.161882 
3872 2 0.00695162 0.0381262 -0.00407909 0.0389688 
580 1 -0.0365172 -0.0452018 -0.0210736 0.0618127 
2054 1 -0.11294 -0.0548093 -0.0536844 0.136534 
2064 1 0.0601136 0.00462008 -0.0518629 0.0795283 
529 1 0.00162065 0.0439424 -0.0679459 0.0809333 
402 1 -0.00735284 0.0455543 -0.00763461 0.0467712 
124 1 0.0120941 -0.0658402 0.0212409 0.0702309 
744 1 0.0648813 0.0229218 0.00312763 0.0688823 
185 1 0.0791858 -0.0428574 0.0984319 0.133402 
315 1 -0.0245369 -0.0470933 -0.0460027 0.0702573 
655 1 -0.0439242 -0.00274327 0.0879453 0.0983425 
765 1 -0.0206139 0.0795188 0.0252692 0.085946 
140 1 0.0301673 0.0576689 -0.0254228 0.0698719 
59 1 -0.0390039 -0.0241388 0.0276214 0.0535437 
54 1 0.00861025 0.0080747 0.0347874 0.0367355 
3506 2 0.00985068 0.0519756 -0.0404291 0.0665809 
666 1 -0.0519344 -0.0883466 0.0689151 0.123497 
43 1 0.0414019 0.11129 0.0567468 0.131605 
334 1 0.00796616 0.0247635 -0.00132479 0.026047 
267 1 0.0967112 0.0487075 0.0082064 0.108595 
99 1 0.0541602 0.0371366 0.0828225 0.105698 
1189 1 -0.0722821 -0.0493698 -0.106518 0.13787 
201 1 0.010671 -0.0656258 -0.0507423 0.0836385 
380 1 0.0326132 0.0876713 -0.117981 0.150564 
1777 1 0.021119 -0.0151028 -0.0386898 0.0465941 
2597 1 0.194433 -0.0202326 -0.0555208 0.203214 
2484 1 0.108164 -0.0476247 -0.0876104 0.147116 
308 1 -0.0495402 -0.0254919 -0.02442 0.060831 
3918 2 -0.0317185 0.0503877 0.0127277 0.0608849 
89 1 -0.0572561 0.0307463 -0.0339247 0.0733108 
300 1 -0.00741857 0.024863 -0.00504205 0.0264315 
3582 2 0.0157223 0.0608415 0.013294 0.0642309 
712 1 -0.070659 0.036091 0.0641349 0.102022 
3836 2 -0.00839643 0.026683 -0.0546402 0.0613843 
268 1 0.0245837 0.000654246 -0.015952 0.029313 
788 1 0.00976306 0.033522 -0.0932655 0.0995866 
4091 2 -0.00512735 0.10536 0.0209305 0.107542 
371 1 0.0469314 0.038719 0.0484896 0.0778008 
3505 2 0.0112669 -0.0173348 0.0858173 0.0882725 
266 1 0.0260307 -0.041963 -0.0279841 0.0567592 
3571 2 -0.0619434 0.0461112 0.0305955 0.0830621 
637 1 -0.00940344 0.000571431 -0.0472439 0.0481741 
157 1 0.0248266 0.000612837 0.017452 0.0303531 
257 1 0.0243391 0.0388975 0.0311564 0.0554629 
571 1 -0.0463099 0.0106091 -0.0474877 0.0671732 
665 1 -0.093953 0.0242321 0.117653 0.152501 
448 1 -0.0733025 -0.0350166 0.0191286 0.0834585 
827 1 0.0982742 0.086218 -0.0122771 0.131309 
3475 2 -0.00608575 -0.0175406 0.0287311 0.034208 
73 1 -0.0179295 0.0913738 -0.00813227 0.0934707 
373 1 0.0526887 -0.0431069 0.0581372 0.0895222 
247 1 0.00517239 -0.0182722 -0.029561 0.0351352 
107 1 0.0461758 0.0119233 0.02619 0.0544085 
675 1 -0.0149044 0.0513777 -0.094747 0.108806 
434 1 -0.0180521 0.0514529 0.0312502 0.0628479 
159 1 -0.0408717 0.0138996 -0.0107473 0.0444882 
32 1 0.0346783 0.05978 0.00517974 0.0693041 
3579 2 0.0279299 -0.0690601 -0.0259849 0.078896 
394 1 -0.0296499 0.0114265 0.0402206 0.051258 
260 1 -0.0493105 0.0160682 0.0114566 0.0531127 
3972 2 -0.0348558 0.0191511 0.0946432 0.10266 
1801 1 -0.0632698 0.00848816 0.0586179 0.086667 
2122 1 -0.0203362 0.013678 0.0716706 0.0757452 
1966 1 0.0184707 -0.0181415 -0.0551683 0.0609411 
291 1 -0.00417082 0.00654982 0.0212495 0.0226238 
2047 1 0.0611915 0.00256313 0.0493959 0.0786824 
1899 1 -0.0187906 0.112561 0.0148699 0.115083 
622 1 -0.0604998 0.0203416 0.00932488 0.0645055 
1993 1 -0.0218064 0.00502235 -0.0169976 0.0281009 
62 1 0.0378508 0.0620888 0.0262835 0.077321 
2187 1 0.00941122 -0.0112855 -0.0907587 0.0919406 
4318 2 0.0409924 -0.043144 -0.00450801 0.0596834 
44 1 -0.0286993 -0.0497384 0.0508757 0.0767196 
824 1 -0.0129537 -0.0102836 0.0264251 0.0311743 
1282 1 -0.0276475 0.0168529 0.0868339 0.0926743 
3626 2 0.0450631 0.0433343 -0.0147045 0.0642243 
819 1 0.0327372 0.017273 0.0603905 0.0708315 
773 1 -0.0846514 -0.0728025 0.0224276 0.113882 
270 1 0.0389546 -0.068623 0.0324667 0.0853268 
14 1 -0.0634658 0.0322951 -0.056771 0.0910704 
3540 2 0.0414597 -0.0352563 -0.0113151 0.0555873 
997 1 0.0891332 -0.0133553 -0.00313837 0.0901828 
4275 2 -0.0189237 -0.0624132 -0.0681902 0.094358 
164 1 0.0491848 0.0509125 0.125261 0.14388 
234 1 -0.0462282 -0.0646188 0.0477369 0.09269 
1125 1 -0.00166011 0.0665722 -0.0597438 0.0894647 
3985 2 -0.0732766 -0.00613925 0.0865545 0.113573 
328 1 0.0246634 0.0172811 -0.0400425 0.0501031 
3474 2 0.00693632 0.0166557 -0.0165286 0.0244687 
543 1 -0.0629257 -0.0247274 -0.0106057 0.0684366 
293 1 0.067161 -0.0377833 0.024785 0.0809474 
3458 2 0.0506157 -0.0511069 0.0516657 0.0885619 
390 1 -0.019697 -0.0479211 0.011834 0.0531455 
3706 2 0.102031 -0.0793507 -0.0528699 0.13965 
2169 1 0.065258 0.0524876 0.0127441 0.0847111 
1786 1 -0.0325442 0.0253843 -0.0716664 0.0827017 
1478 1 0.0189863 -0.0177091 0.107979 0.111057 
87 1 -0.00441032 -0.0290272 -0.0145773 0.0327799 
4090 2 0.00165594 -0.0521489 0.0453423 0.0691243 
142 1 -0.0210365 0.0251733 0.0560886 0.0649781 
1650 1 -0.0685018 -0.0439347 -0.0669988 0.105412 
153 1 -0.000715855 0.0387006 0.0137841 0.0410883 
374 1 0.0541323 -0.0153412 -0.0128997 0.057724 
602 1 -0.00169479 -0.041391 -0.021426 0.0466386 
1277 1 -0.0500161 0.0152223 0.00765673 0.0528389 
76 1 -0.0380327 -0.033887 0.0538837 0.0741503 
1370 1 0.0469343 -0.0377508 0.0909604 0.109095 
221 1 0.00465037 0.0241359 -0.0522573 0.0577494 
604 1 -0.00229306 0.0596349 0.0768268 0.0972828 
1161 1 -0.0647592 -0.0105147 0.0293703 0.0718814 
1718 1 -0.108914 0.00895356 -0.0784444 0.134521 
178 1 0.04196 -0.121586 -0.00226702 0.128643 
295 1 -0.0682081 -0.0430683 0.0210564 0.0833702 
1472 1 -0.0546609 -0.0560354 0.0358255 0.0860886 
4159 2 -0.0134524 -0.0433323 -0.0329054 0.0560483 
3467 2 0.0923395 -0.00718669 0.0256573 0.0961069 
3531 2 0.0334078 -0.0296671 0.103035 0.112305 
2720 1 -0.105369 0.0586795 -0.038004 0.126453 
1851 1 0.00907752 0.0262798 -0.000598747 0.0278098 
732 1 -0.0521015 -0.0823721 0.00998724 0.0979769 
4009 2 0.0310676 0.0937732 -0.018283 0.100463 
3878 2 0.0155355 0.0177576 -0.0223947 0.0325302 
3185 1 -0.099796 -0.0392901 0.0177053 0.108703 
110 1 -0.0545967 -0.0258056 0.0240601 0.0650048 
2963 1 -0.0247601 -0.00521404 -0.0236737 0.034651 
2608 1 -0.0359455 0.0117307 -0.00824049 0.0386987 
3301 1 -0.00406403 -0.00868901 0.0100624 0.013902 
3759 2 -0.0225504 0.017508 -0.0149633 0.0322327 
4171 2 -0.0124104 0.0233889 -0.00221281 0.0265699 
2118 1 -0.00746609 0.0356982 -0.0536873 0.0649033 
1742 1 0.064925 -0.0840157 0.0196941 0.10799 
642 1 0.0347823 -0.117043 0.0743838 0.142975 
3366 1 -0.0515437 0.00929625 0.0733894 0.090162 
144 1 0.124598 0.101506 0.015444 0.161452 
681 1 0.0484484 -0.0469684 -0.0681374 0.0958957 
1666 1 0.0966316 -0.0398829 -0.0339077 0.1099 
183 1 -0.0921095 -0.0531499 -0.0249368 0.109229 
694 1 -0.122038 0.0163132 0.070723 0.14199 
444 1 -0.017794 0.0643359 -0.082948 0.106471 
869 1 -0.0174988 -0.100481 0.0814962 0.130553 
920 1 -0.00201654 -0.0745199 -0.043897 0.0865114 
53 1 0.0319245 0.00552345 0.0267267 0.042 
1450 1 -0.149557 -0.0566159 -0.0190755 0.161048 
1579 1 0.113035 -0.0677366 0.0637661 0.146394 
51 1 0.0744936 0.0268002 0.03284 0.0857089 
4187 2 -0.0805022 -0.0498385 -0.170269 0.194823 
1694 1 -0.00201393 -0.0874973 0.0622101 0.107377 
1590 1 0.01732 0.0311023 -0.0399524 0.053512 
2005 1 -0.0276118 0.00215866 0.12189 0.124997 
736 1 -0.0374441 -0.0120172 -0.0638246 0.074967 
363 1 0.0331862 -0.00192303 0.039635 0.0517297 
230 1 0.0224993 0.0299397 0.172203 0.176229 
2538 1 -0.00609121 0.0169049 -0.0715703 0.0737915 
357 1 -0.082711 0.00403019 0.0208234 0.0853871 
3849 2 0.102941 -0.0143887 0.00810059 0.104257 
4102 2 0.0671831 -0.0974724 0.0429303 0.125926 
1032 1 0.0660762 -0.0229898 0.0106695 0.0707702 
78 1 -0.00802662 0.0230686 -0.0230255 0.0335673 
564 1 0.0977585 0.00795036 0.108858 0.146526 
797 1 0.130187 -0.0429925 -0.0503656 0.14606 
1476 1 0.12398 -0.0325407 -0.0248902 0.130573 
872 1 -0.0744703 -0.0366727 -0.051624 0.0977536 
475 1 -0.0385795 0.0164866 0.0247335 0.0487024 
4119 2 0.0933582 -0.0670845 -0.0544473 0.127203 
576 1 -0.128895 0.048838 0.0643312 0.152111 
507 1 0.0511732 -0.0241974 0.0251951 0.0619597 
248 1 0.0819231 -0.050865 -0.0107874 0.0970309 
3597 2 -0.0506636 0.03091 0.026507 0.0649988 
539 1 0.000165093 0.0224936 0.0837701 0.0867376 
63 1 0.0656571 0.0171755 0.0276948 0.0732998 
57 1 -0.0934966 0.00364631 -0.0048376 0.0936927 
854 1 -0.000201655 0.0371639 0.0114522 0.038889 
668 1 0.114382 -0.0692523 -0.113673 0.175501 
385 1 -0.100204 -0.141562 0.00944149 0.173695 
752 1 0.0360037 -0.0092225 -0.00910643 0.0382654 
3650 2 0.0211887 0.0733326 0.0126465 0.0773729 
3736 2 -0.078885 -0.0959345 -0.0536649 0.1353 
254 1 -0.059208 -0.0888448 -0.0254211 0.109751 
3637 2 -0.0133559 0.00649135 0.0792465 0.0806258 
731 1 0.0527691 0.0193103 -0.0612231 0.0831008 
2304 1 0.0987306 -0.0459102 -0.0662167 0.127437 
610 1 -0.0689285 -0.026195 -0.0924885 0.118285 
292 1 -0.0548883 0.0185221 0.0119822 0.0591554 
313 1 -0.0735612 -0.0104471 0.0410666 0.0848933 