ITEM: TIMESTEP
76
ITEM: NUMBER OF ATOMS
4320
ITEM: BOX BOUNDS pp pp pp
0.0000000000000000e+00 1.9309999999999999e+01
0.0000000000000000e+00 1.9309999999999999e+01
0.0000000000000000e+00 9.6549999999999994e+00
ITEM: ATOMS id type c_displacement[1] c_displacement[2] c_displacement[3] c_displacement[4] 
4012 2 0.0346449 -0.074354 -0.0628099 0.103314 
2361 1 -0.048385 -0.0822101 -0.123374 0.155951 
79 1 0.0304439 -0.0612891 -0.0312823 0.0752447 
781 1 0.05456 0.0212539 0.153353 0.164151 
461 1 0.0192717 0.0719176 0.0456546 0.0873378 
3704 2 0.0208025 -0.101292 0.0287714 0.107334 
629 1 -0.0308606 0.107655 0.0426019 0.119821 
1571 1 0.027848 -0.048081 -0.0449111 0.0714444 
58 1 0.0639083 0.152953 0.0442585 0.171574 
2372 1 -0.0665108 -0.032846 -0.0252742 0.0783667 
372 1 0.031786 -0.0926433 -0.0138213 0.0989149 
3504 2 -0.0518497 -0.0801267 0.0491578 0.107355 
4130 2 0.0721574 -0.0181614 -0.107122 0.130429 
1262 1 0.0473146 0.0389138 -0.0513169 0.0799149 
907 1 -0.117157 -0.0515452 -0.141697 0.190947 
3659 2 -0.00133582 0.106023 -0.0796668 0.132625 
1298 1 0.0327383 0.0730416 -0.106394 0.133141 
1716 1 0.0598291 0.0440851 -0.0679548 0.100702 
1182 1 0.0365641 0.0389841 -0.0505629 0.0735752 
683 1 0.00602991 -0.0623831 0.0261093 0.0678948 
1958 1 -0.0466391 -0.0292025 0.00671735 0.0554357 
1554 1 0.0457393 -0.0917121 -0.0773594 0.128404 
1037 1 0.00614852 -0.110039 0.010263 0.110687 
749 1 -0.0542383 -0.134624 0.00235723 0.145158 
3628 2 0.0373787 0.0499943 -0.00382199 0.0625396 
946 1 -0.104131 -0.0453514 -0.00339228 0.113629 
2232 1 -0.0741254 -0.165681 -0.107912 0.211163 
7 1 0.0204796 -0.0576008 0.0506066 0.0793618 
501 1 -0.00344207 -0.0107315 -0.0242313 0.026724 
179 1 -0.045332 -0.0138095 0.0345845 0.0586667 
714 1 -0.122793 0.0134288 0.0615033 0.13799 
4166 2 -0.00844163 -0.0807962 0.12034 0.145193 
276 1 -0.0303026 -0.0717563 0.0864134 0.116338 
767 1 0.00202472 -0.017396 0.0273415 0.0324697 
3890 2 -0.171052 -0.0456954 -0.0662388 0.189036 
6 1 0.0229345 0.179587 0.0121202 0.181451 
2086 1 0.0612807 0.0230373 0.0224509 0.0692105 
224 1 0.135862 -0.0693871 0.00838368 0.152786 
3660 2 0.00353921 -0.0320748 0.094633 0.0999836 
596 1 -0.079969 -0.015516 -0.0218585 0.0843421 
1214 1 0.0746982 -0.0509765 -0.0857849 0.124649 
3686 2 -0.0234044 0.00123671 0.0485014 0.0538673 
427 1 -0.143187 0.0500814 0.0715323 0.167713 
350 1 0.0311355 0.0646134 -0.0817224 0.108733 
85 1 -0.0448892 0.0590317 0.0922046 0.118328 
598 1 0.0404958 -0.126405 0.0714776 0.150755 
3554 2 0.0859349 -0.0235943 -0.0403301 0.0978162 
29 1 -0.205971 0.0733758 -0.0404316 0.222357 
464 1 0.047228 -0.0201988 -0.136883 0.146203 
3619 2 -0.0819792 0.0215202 0.134922 0.159335 
12 1 -0.0630719 -0.00963623 -0.0844073 0.105809 
364 1 -0.150427 -0.0287832 -0.0766004 0.171243 
1849 1 -0.0961244 -0.0824634 -0.103006 0.16325 
3663 2 -0.203894 0.0626748 -0.0294018 0.215326 
3517 2 0.00965986 0.0120641 0.143709 0.144537 
25 1 0.223415 0.0379757 -0.0723526 0.237889 
4163 2 0.00190927 -0.0412536 -0.0145349 0.0437809 
399 1 0.0568945 0.0476855 -0.032245 0.080936 
4265 2 -0.0506498 0.066128 0.122549 0.148177 
527 1 -0.013259 0.0943113 -0.0381882 0.10261 
200 1 0.0515238 0.0463979 0.124366 0.142388 
1951 1 0.120846 0.0917317 0.010004 0.152048 
644 1 0.029858 -0.0361233 0.0391773 0.061084 
193 1 0.0321148 0.0604762 0.06508 0.0944676 
550 1 0.0558488 -0.019713 -0.00213204 0.0592641 
69 1 0.0279971 -0.0533173 -0.0109218 0.0612034 
842 1 0.0111131 0.031429 -0.0303426 0.0450772 
578 1 0.0332149 -0.0570299 -0.000836322 0.0660025 
172 1 -0.0349656 -0.0231633 0.0483706 0.0640223 
381 1 -0.0331196 -0.0204092 0.0305297 0.049452 
3524 2 0.0278788 -0.0179887 0.082284 0.0887213 
688 1 -0.0261087 0.123517 0.0172283 0.127416 
3651 2 -0.0492725 0.0367268 0.0868806 0.106418 
2367 1 0.04063 0.0216379 -0.0724657 0.0858503 
1244 1 -0.125817 -0.0226376 -0.00276871 0.127867 
796 1 0.00130661 0.127517 -0.0476134 0.136123 
691 1 0.0285592 0.00406665 -0.0460339 0.0543258 
421 1 0.0788915 0.0623016 0.0100891 0.10103 
597 1 0.0286438 0.0334561 0.0381598 0.0582747 
3617 2 0.113424 -0.0295316 -0.0286992 0.120668 
120 1 0.0654624 0.225851 0.117405 0.262827 
769 1 -0.0868228 -0.0570271 0.0307985 0.108346 
2142 1 0.026911 0.0425418 -0.0212801 0.0546521 
3611 2 0.114784 -0.00204183 0.183206 0.216204 
1915 1 0.00308679 0.105576 0.078575 0.131643 
2140 1 0.059651 -0.0412559 0.0727626 0.102736 
3828 2 0.0789477 0.0826668 0.0767597 0.13769 
3204 1 -0.0298329 0.0388379 0.0727457 0.0876945 
175 1 0.106683 -0.0449544 -0.058181 0.129566 
2011 1 0.196629 0.112692 0.0448785 0.231033 
75 1 -0.0509444 0.131404 -0.0560036 0.151653 
547 1 0.00718513 -0.0166865 -0.144077 0.145218 
4316 2 -0.0874326 0.0825567 -0.096641 0.154271 
559 1 0.0137501 0.0330661 -0.0461404 0.058407 
717 1 0.00586078 0.0733504 -0.0922085 0.11797 
242 1 -0.0143946 -0.0380338 0.128564 0.134842 
3510 2 -0.131011 0.00472693 0.176758 0.220067 
130 1 0.106071 0.00762545 0.0837362 0.135355 
143 1 0.0296521 0.0846628 -0.0367037 0.0969237 
202 1 -0.141009 -0.122299 -0.0436979 0.191704 
182 1 -0.142931 0.0686998 0.0562847 0.168276 
84 1 0.0320681 0.013474 -1.57801e-05 0.0347838 
3633 2 -0.063526 -0.0177992 -0.0333774 0.0739353 
35 1 -0.170622 0.0364257 0.139331 0.223275 
3612 2 0.0021626 0.0343197 0.0302806 0.0458196 
40 1 0.108632 0.106964 0.0868444 0.175454 
4005 2 0.0859614 -0.0890794 0.0783407 0.146498 
718 1 -0.11122 -0.00700881 -0.0426284 0.119315 
134 1 0.0196101 0.036513 0.0921922 0.10108 
511 1 -0.0927274 -0.0355753 0.002053 0.0993387 
757 1 -0.0250083 0.186333 0.00433753 0.188054 
3555 2 -0.0634031 0.105412 0.0732556 0.143171 
3481 2 -0.00569356 -0.0412652 -0.0468343 0.0626792 
135 1 -0.0307725 -0.0408679 -0.0905969 0.104043 
369 1 0.105327 -0.0425263 0.00117126 0.113594 
2148 1 -0.0698289 -0.0722024 0.0814588 0.129324 
3462 2 0.0466099 -0.0684349 -0.162027 0.181958 
1914 1 -0.00910561 -0.00164965 -0.0524079 0.0532186 
3661 2 0.0973747 -0.138732 -0.0119751 0.169917 
1871 1 0.0112189 0.041439 -0.0307309 0.0527963 
320 1 -0.0939463 -0.0868873 -0.057546 0.14031 
582 1 -0.0813973 -0.0889337 -0.0384081 0.12653 
766 1 -0.0135301 0.0264774 -0.0456804 0.0545051 
3552 2 0.063633 0.0137004 -0.0256555 0.0699647 
2290 1 -0.00125325 0.0725942 0.0246579 0.0766779 
1794 1 -0.0596106 0.12544 0.063683 0.152788 
753 1 -0.0188691 0.00829669 0.0525196 0.0564197 
396 1 0.0409156 -0.0119234 0.175884 0.180973 
496 1 0.0191457 -0.060221 -0.0868916 0.10744 
480 1 -0.0392012 -0.0761417 0.106885 0.136963 
253 1 0.0696296 -0.00677304 -0.0709321 0.0996269 
4033 2 0.00526392 -0.00542648 -0.0595613 0.0600392 
347 1 -0.0197711 -0.013049 -0.115517 0.117921 
586 1 -0.0977137 0.0307848 -0.0924778 0.138014 
3671 2 -0.0444385 0.0199564 -0.0358701 0.0604955 
37 1 0.0912253 -0.176241 -0.0540876 0.20569 
782 1 0.0379481 -0.137485 -0.0691012 0.158484 
481 1 0.110484 -0.0761671 -0.0612595 0.147516 
392 1 -0.0196376 0.0105826 -0.0813087 0.0843133 
333 1 0.0243077 -0.0291083 -0.0283269 0.0473347 
342 1 -0.0174752 -0.0637 -0.0696022 0.0959559 
1179 1 0.0287219 -0.0931167 -0.0751383 0.12305 
517 1 0.0463712 -0.0929062 -0.0299767 0.108076 
1824 1 0.0271524 -0.0420597 0.0462487 0.0681558 
34 1 0.145788 -0.0315634 0.0462135 0.15616 
398 1 -0.0108789 -0.0513595 -0.0723616 0.0893999 
170 1 -0.0594624 -0.0540367 -0.0354972 0.0878396 
235 1 0.0445216 -0.0608976 0.0813333 0.110931 
3852 2 -0.0625069 0.00307233 -0.0149526 0.0643439 
816 1 0.0468131 -0.0623878 -0.129837 0.151464 
3931 2 -0.176281 -0.106256 0.0665534 0.216321 
274 1 -0.0150981 -0.0748606 -0.055987 0.0946921 
30 1 -0.0116783 -0.0710966 -0.0297261 0.0779407 
2066 1 0.0956919 -0.0306015 0.155872 0.185444 
1082 1 -0.038286 -0.153231 0.152686 0.219678 
1372 1 0.0104963 -0.0504599 0.103022 0.115195 
1265 1 0.0355563 -0.0197638 -0.0387686 0.0561948 
601 1 -0.0471652 0.0675382 0.0135626 0.083486 
540 1 -0.0762311 -0.130204 -0.0241039 0.152791 
589 1 -0.0309262 0.111859 0.155553 0.194076 
958 1 0.130387 -0.0173068 0.0760436 0.151931 
504 1 -0.0711854 0.0810127 -0.0338575 0.113034 
1349 1 -0.16267 -0.0200392 -0.0265095 0.16603 
9 1 0.0332543 -0.125814 -0.0201227 0.131682 
149 1 -0.0260013 0.0232202 0.000307954 0.0348617 
163 1 -0.0133461 -0.244694 0.0828972 0.258699 
4247 2 0.0528213 -0.110168 -0.0931294 0.153623 
1584 1 0.175153 -0.00126057 -0.0599779 0.185142 
3570 2 -0.0419154 -0.114315 -0.0738896 0.142423 
237 1 -0.000990838 0.0678466 0.119573 0.137484 
490 1 0.0504189 -0.126327 0.0196086 0.137423 
50 1 0.0239601 0.0239943 0.0249595 0.0421044 
152 1 0.108241 -0.00932797 -0.189477 0.218414 
3652 2 -0.0799286 -0.0607768 -0.0175323 0.10193 
3823 2 0.0911435 0.0778655 -0.170233 0.208206 
902 1 -0.0101256 0.0532944 0.0189504 0.0574625 
3574 2 -0.00791647 0.0404474 -0.026234 0.0488557 
770 1 -0.014857 -0.0356103 -0.0794321 0.0883078 
154 1 -0.067987 -0.0676535 -0.00887078 0.096322 
116 1 0.0882383 -0.0454926 0.114407 0.151474 
710 1 -0.0840811 -0.16179 -0.0853876 0.201337 
1956 1 -0.0750521 -0.0219697 0.0196571 0.0806343 
1810 1 -0.113109 0.000680061 0.0161626 0.11426 
2072 1 -0.048214 -0.0287091 -0.0490338 0.0745192 
1649 1 -0.0604245 -0.00212948 -0.119673 0.134079 
186 1 -0.091469 0.0834238 0.0573158 0.136423 
1063 1 -0.189085 0.175731 -0.145966 0.296548 
432 1 -0.175366 0.0506174 -0.119222 0.218012 
2495 1 0.00486547 -0.114188 0.0172836 0.115591 
3896 2 -0.0435692 -0.0127111 -0.113749 0.122469 
460 1 0.0859887 -0.0388097 -0.0324468 0.099765 
913 1 0.0399509 0.012242 -0.0146025 0.0442626 
1068 1 -0.0929458 0.0268074 -0.0697613 0.119265 
265 1 -0.0891818 -0.0476099 -0.0789824 0.12829 
1287 1 0.021427 0.0597733 0.0173966 0.0658378 
3799 2 0.142141 -0.0959592 -0.125692 0.212628 
554 1 0.13592 -0.0646306 0.0196509 0.151781 
1414 1 0.00383483 0.0636672 -0.05451 0.0839021 
213 1 0.00866891 0.0169281 0.0630845 0.0658891 
341 1 -0.119462 -0.0306288 0.00416574 0.123397 
3682 2 0.0138511 0.101553 -0.0556256 0.116615 
754 1 -0.0702461 0.00537769 0.0452478 0.0837305 
112 1 -0.0259139 0.0444155 0.000847212 0.0514294 
1041 1 -0.00935122 0.00464621 -0.0215582 0.0239539 
119 1 0.044229 0.0861121 -0.0336519 0.102489 
3998 2 0.0313289 -0.0417861 0.169142 0.177021 
995 1 -0.0570663 0.0301491 -0.000840186 0.0645464 
4128 2 0.0708328 -0.0187002 0.237527 0.248568 
8 1 0.0128507 0.0744688 0.0104132 0.0762835 
94 1 0.0497523 0.0440873 -0.0180398 0.0688797 
48 1 0.0758176 -0.0306805 0.102448 0.131092 
437 1 0.0657283 -0.0439434 -0.0372903 0.0874174 
3866 2 0.066507 0.00802802 -0.0554128 0.086938 
2206 1 0.0232841 0.0196607 -0.0145316 0.0337618 
3490 2 -0.0505662 0.0186457 -0.0992505 0.112939 
3072 1 -0.0312184 -0.112188 0.0587326 0.130424 
3002 1 0.101724 0.0627213 -0.0143687 0.120367 
92 1 0.0353639 0.0953691 0.063067 0.11968 
335 1 0.0210458 0.0480228 -0.029684 0.0602516 
2192 1 0.00775088 0.0345882 0.150093 0.154222 
1186 1 0.0284115 -0.0355711 -0.0300423 0.0545441 
1114 1 0.0592063 -0.069267 0.0218059 0.0936952 
1821 1 -0.112846 -0.0777796 -0.0474524 0.145037 
1922 1 0.0533392 -0.0856713 0.0563416 0.115581 
451 1 -0.113235 -0.02864 -0.0174074 0.118091 
3960 2 -0.0174505 -0.0370466 0.058345 0.0712819 
100 1 -0.0602116 -0.0366544 -0.0490065 0.0858522 
1180 1 0.0446015 -0.0500859 -0.101459 0.121622 
165 1 0.072048 -0.00422492 -0.0422449 0.0836265 
388 1 -0.0584766 -0.00724729 -0.104128 0.119644 
3742 2 0.00931492 -0.0551337 0.016812 0.0583878 
323 1 -0.11014 0.106425 0.0366972 0.157492 
288 1 -0.116961 0.0233973 -0.0342683 0.124104 
3942 2 -0.106434 0.119583 0.109258 0.193819 
66 1 0.0510082 0.0306845 0.0866675 0.105141 
340 1 0.0903805 0.0717039 -0.0434355 0.123275 
138 1 -0.0213513 0.000337083 0.0541864 0.0582422 
879 1 -0.0512862 -0.0286354 -0.0522173 0.0785933 
3808 2 0.0749221 0.177885 -0.0467173 0.198592 
834 1 0.0855485 0.0321141 -0.00063725 0.0913798 
18 1 -0.0688366 -0.0649493 -0.0949007 0.134026 
3679 2 0.110803 -0.0629545 -0.0853497 0.153379 
52 1 0.00536511 -0.155265 0.0223551 0.156957 
407 1 0.0205028 0.0889961 -0.0774768 0.119764 
360 1 0.0672618 -0.0156526 -0.054541 0.0879992 
2885 1 -0.0653451 -0.00569714 0.00367121 0.0656957 
3526 2 -0.0598874 -0.232442 -0.0205731 0.240913 
310 1 -0.0963316 -0.0425207 -0.0542062 0.118432 
326 1 0.102102 -0.0339903 0.0862461 0.137908 
227 1 -0.054553 -0.0695772 -0.0737653 0.115145 
2068 1 -0.101461 0.0060016 -0.170208 0.198245 
456 1 0.095979 -0.0142806 0.0591534 0.113644 
279 1 0.0327706 0.0539179 0.15449 0.166878 
305 1 0.00187549 0.0261876 0.00165597 0.0263068 
49 1 0.00950354 0.0453277 0.0185767 0.0499 
3512 2 0.0392796 -0.163094 0.0252262 0.169643 
11 1 -0.0749918 -0.176829 -0.00593457 0.192165 
189 1 -0.131998 0.100172 0.00296813 0.165731 
2271 1 -0.0848606 -0.0892934 -0.0610202 0.13747 
319 1 -0.145928 -0.0613028 0.0207158 0.159631 
3566 2 0.0595251 0.0280606 -0.0598642 0.0889626 
71 1 0.0286699 -0.00434947 0.0534437 0.0608039 
1560 1 -0.050748 0.0381182 0.0593944 0.0869256 
190 1 -0.0811754 0.00658542 0.128986 0.152546 
123 1 0.0792732 -0.0114847 0.106152 0.132983 
27 1 -0.0182195 -0.0356079 0.0112939 0.0415623 
162 1 0.0135176 0.0543349 -0.0590007 0.0813393 
255 1 -0.136589 -0.022697 0.00484133 0.138547 
304 1 -0.0475008 -0.00536367 -0.0924846 0.104108 
321 1 0.0220852 -0.0261672 0.13729 0.141496 
682 1 -0.107207 0.00117105 0.00124013 0.10722 
3469 2 0.0122684 -0.00330197 -0.0808263 0.0818187 
3539 2 0.00842474 -0.00405428 0.107522 0.107928 
128 1 0.0229519 -0.0874573 -0.102191 0.13645 
3562 2 0.112157 0.0120866 0.139252 0.179211 
560 1 -0.192822 -0.0624991 -0.0841234 0.219462 
212 1 0.00271271 0.0502545 -0.0764291 0.091511 
355 1 0.00655154 0.0405581 0.0695486 0.0807768 
156 1 0.00788783 0.0653024 0.0542048 0.0852337 
3620 2 0.0841528 -0.0639176 0.00431896 0.105763 
1823 1 0.202639 -0.177412 -0.0863864 0.282843 
1805 1 -0.15356 0.0185779 0.105584 0.187281 
2599 1 -0.0841435 0.0554857 0.110075 0.149249 
327 1 0.129169 0.0500084 0.0572978 0.149895 
137 1 0.0752844 0.0457605 -0.0245376 0.0914541 
2334 1 0.0141567 0.00398734 0.0228618 0.0271841 
3698 2 0.00994244 -0.0481401 -0.0344878 0.0600477 
555 1 -0.0276859 -0.0366287 -0.0240777 0.0518451 
4178 2 -0.0130995 -0.0499462 0.0205251 0.0555652 
290 1 0.0113296 -0.0177573 -0.046262 0.0508316 
284 1 0.0259501 0.0458386 0.0136355 0.0544106 
3543 2 -0.0783733 -0.0908677 -0.0112108 0.12052 
366 1 0.0280823 -0.00222514 0.117579 0.120906 
55 1 0.0321819 0.0499247 0.00272722 0.0594608 
273 1 -0.0328843 0.0198181 -0.10572 0.112476 
3468 2 0.107694 -0.0246424 0.145062 0.182341 
316 1 0.156064 0.0553976 0.137799 0.215438 
81 1 -0.0475365 -0.0482412 0.00250493 0.0677732 
322 1 0.0511701 -0.0459669 0.0557494 0.08854 
239 1 0.0463719 -0.0148786 -0.0493881 0.0693607 
734 1 -0.0103207 -0.0615916 -0.0685272 0.0927147 
384 1 0.0138215 -0.0960253 -0.100591 0.139752 
3476 2 0.0176635 0.0919865 0.0133981 0.0946204 
311 1 -0.0423594 -0.11211 -0.0291623 0.123342 
3471 2 0.0369655 0.0357275 0.0699139 0.0867804 
1938 1 0.0768173 -0.0420396 0.017407 0.0892817 
139 1 0.172316 0.02997 -0.0551363 0.183388 
727 1 0.0940344 -0.134604 -0.0338162 0.167643 
1885 1 0.00281413 0.057491 -0.00963943 0.0583614 
2184 1 0.215353 0.081355 -0.0467431 0.234906 
2494 1 -0.153565 0.0276675 -0.106628 0.18899 
2091 1 0.00990166 0.0235659 -0.0604032 0.0655892 
281 1 0.0204367 0.101865 0.141288 0.175375 
863 1 -0.0333839 0.073858 -0.073843 0.109646 
176 1 -0.0592664 0.0337323 -0.0973097 0.118826 
3710 2 0.0105201 0.0599116 -0.0652477 0.0892039 
3572 2 -0.0470135 -0.116309 -0.104141 0.163044 
4197 2 -0.0165083 0.0636267 -0.115508 0.132902 
343 1 -0.0591202 -0.0307838 -0.0991472 0.11947 
282 1 -0.0416032 -0.00885082 -0.0766366 0.087649 
1038 1 0.0236469 0.0525465 0.0862978 0.103767 
408 1 0.184839 -0.0347311 0.023631 0.189552 
412 1 0.10753 -0.0144486 0.0151476 0.109549 
820 1 0.118847 0.0497409 0.124849 0.179405 
585 1 -0.0782741 -0.0289536 -0.113531 0.140906 
3609 2 0.0795249 -0.133108 0.0424547 0.160762 
719 1 -0.00766959 0.00441197 -0.0128236 0.0155799 
608 1 0.0704388 0.110844 0.107617 0.169793 
106 1 0.0118615 0.0428215 0.028707 0.0529006 
1047 1 -0.10917 -0.0593275 -0.0436695 0.1317 
3573 2 0.0580104 0.0585237 -0.07305 0.110121 
751 1 -0.00894322 -0.0335616 -0.0788227 0.0861359 
259 1 0.0634071 -0.00679443 -0.0219465 0.0674409 
245 1 -0.0417249 -0.0246205 0.0173601 0.0514636 
613 1 -0.0480097 -0.109882 0.0809163 0.14466 
4296 2 -0.0144647 0.0573345 0.0125159 0.060441 
272 1 -0.104023 -0.141603 -0.0474565 0.182001 
4239 2 -0.166122 -0.084283 -0.0899887 0.206877 
88 1 0.0716624 0.107757 0.102894 0.16533 
4 1 0.0613157 0.00204083 -0.0557799 0.0829167 
361 1 0.139969 0.084064 -0.15057 0.222102 
358 1 -0.0579164 0.0401546 0.0857467 0.110992 
194 1 0.036306 0.0328934 -0.102699 0.113785 
2373 1 0.018248 -0.00271755 -0.0701182 0.0725048 
1982 1 0.0589108 0.0277101 0.0463162 0.0798969 
3953 2 0.0217492 0.0667016 0.0946072 0.117782 
414 1 0.0235656 0.0416456 -0.142933 0.15073 
3186 1 0.0825032 -0.03309 -0.0263115 0.0927039 
177 1 0.0747517 -0.0406953 -0.00603583 0.085325 
1962 1 -0.0180347 0.112068 0.167648 0.202461 
706 1 -0.00411698 0.0611875 -0.00955061 0.0620651 
1544 1 0.0278392 -0.158671 0.0634104 0.173125 
4160 2 -0.0153506 0.0804421 -0.0224035 0.0849028 
19 1 -0.0645279 0.0872485 -0.0877451 0.139554 
3624 2 -0.052283 -0.00598378 -0.0812928 0.0968392 
115 1 0.048255 -0.00760622 -0.123437 0.132752 
1102 1 -0.0525862 -0.0359257 0.0824718 0.1042 
2048 1 0.125746 0.00658193 0.00994268 0.126311 
649 1 0.0258307 0.09097 -0.0165581 0.0960049 
113 1 -0.0201031 -0.0719218 0.0261142 0.0791127 
1150 1 -0.00499754 0.000207747 0.0328449 0.0332236 
620 1 0.0368006 -0.0997055 0.00741278 0.106538 
739 1 0.0124922 -0.0314679 -0.118543 0.123283 
2412 1 -0.0198109 0.0143442 -0.00105602 0.0244814 
3746 2 0.105929 0.0221517 -0.184375 0.213789 
1225 1 -0.0221974 0.00229186 0.146597 0.148286 
241 1 0.126523 -0.0413981 0.000237843 0.133124 
83 1 0.024108 -0.0352697 -0.00314233 0.0428371 
1006 1 0.059857 0.0116231 -0.0155898 0.0629364 
4046 2 -0.0853848 -0.0799476 -0.0272154 0.120095 
96 1 -0.042596 -0.163248 0.0655355 0.180995 
411 1 0.141403 0.0449471 0.0492946 0.156349 
2454 1 -0.046328 -0.00587613 0.0598222 0.0758914 
404 1 -0.0407684 0.0868502 0.0764395 0.12267 
226 1 0.0408227 -0.0173734 0.0490015 0.066102 
534 1 0.0566155 -0.0494828 0.12453 0.14547 
3538 2 -0.0814948 0.0783701 -0.0567746 0.126517 
761 1 0.0458203 -0.0443384 0.0713591 0.0956949 
246 1 0.0327959 -0.0141744 -0.0123857 0.0378139 
2229 1 -0.073059 -0.140229 -0.0406389 0.163259 
146 1 0.0146147 -0.132829 -0.0679083 0.149895 
3608 2 -0.0173858 -0.00644603 0.0308803 0.0360196 
503 1 0.0423513 -0.01866 -0.00800463 0.0469671 
505 1 0.136275 -0.0706178 0.0241788 0.155379 
1430 1 -0.0364413 -0.0699192 -0.0807269 0.112843 
97 1 -0.130398 0.0615751 -0.0956117 0.173022 
1723 1 0.0219873 -0.0182383 -0.0930303 0.0973175 
3561 2 0.0459826 0.201645 -0.0655469 0.21696 
20 1 -0.0689199 -0.0148954 0.0216417 0.0737576 
263 1 -0.0525263 0.160073 -0.0114506 0.168859 
817 1 0.102117 -0.0885859 0.0210628 0.136817 
1034 1 -0.0170222 0.0481925 0.00966852 0.0520169 
353 1 0.0152311 -0.0821244 0.190302 0.207825 
1260 1 0.0432989 0.116873 -0.0607805 0.138666 
998 1 0.0449899 0.133647 -0.0854563 0.164889 
1932 1 0.130383 -0.113437 -0.0521981 0.180533 
36 1 0.0941681 -0.188834 -0.0901097 0.229446 
38 1 0.0374119 0.057986 -0.0276946 0.0743574 
3130 1 -0.0365981 -0.0348991 -0.0548294 0.0745898 
1973 1 0.101133 0.0817821 0.135631 0.187915 
307 1 0.0987968 -0.0256118 0.0338111 0.107517 
2714 1 0.0687726 0.0223987 0.00837879 0.0728119 
28 1 0.0784948 0.0626599 -0.0138367 0.101386 
1937 1 0.00912671 0.0781972 -0.068239 0.104186 
562 1 -0.0678269 -0.109073 -0.0258379 0.131015 
3011 1 -0.0144688 0.0175081 -0.0200482 0.0302954 
410 1 0.0689609 -0.126811 0.0478436 0.152072 
693 1 0.0919235 0.0709864 0.202573 0.233506 
367 1 0.00318425 0.00816266 0.00248312 0.00910683 
318 1 0.0355879 0.0353875 -0.146013 0.154397 
735 1 0.153569 0.0158141 0.0274586 0.156804 
600 1 0.00762814 0.0106282 0.0338592 0.0362986 
3590 2 0.0448807 0.107916 0.0608246 0.131756 
3636 2 0.0565184 -0.0654484 0.0254998 0.0901558 
26 1 -0.150203 0.0357372 0.0845911 0.176051 
1199 1 0.0254352 0.100282 -0.0606924 0.119946 
614 1 0.0195247 0.025432 -0.0865196 0.0922694 
459 1 -0.0796587 -0.0623694 -0.060179 0.117716 
3645 2 0.0625867 0.122229 0.0627719 0.150988 
574 1 0.0813077 -0.0945501 0.129237 0.179591 
780 1 0.14632 0.0239947 0.0132969 0.14887 
161 1 -0.11721 -0.0571053 0.138479 0.190199 
309 1 0.105232 0.0872942 -0.0227653 0.138609 
365 1 0.0690565 -0.139508 -0.0438545 0.161724 
191 1 -0.0785889 0.100632 -0.0176833 0.128902 
1766 1 -0.0778351 -0.0374544 -0.011991 0.0872062 
2775 1 0.110952 -0.0550272 -0.0496348 0.133424 
1030 1 0.146235 -0.140602 -0.00436408 0.20291 
1505 1 0.171634 0.178914 0.12986 0.279878 
3872 2 -0.0592673 0.0260834 -0.0105861 0.0656127 
580 1 -0.0277032 -0.032124 0.0190068 0.0464831 
2054 1 -0.0331967 -0.0978329 -0.0276337 0.106944 
2064 1 0.0838111 0.0171429 -0.0110672 0.0862593 
529 1 0.00188476 0.0331511 -0.073102 0.0802898 
402 1 -0.029373 0.0756923 0.016971 0.0829465 
124 1 -0.0907985 -0.0902597 0.0420172 0.134747 
744 1 0.112601 -0.0246825 0.0649624 0.132319 
185 1 0.0581182 -0.034261 0.0845755 0.108188 
315 1 0.0212004 -0.0282894 -0.0264268 0.0441375 
655 1 0.000122341 -0.0934609 0.176738 0.199928 
765 1 0.0106172 0.0279189 0.0321355 0.0438735 
140 1 -0.00784726 0.0724061 -0.178078 0.192395 
59 1 0.00763119 -0.0168612 0.0884414 0.0903572 
54 1 0.0216236 0.0717625 0.0318499 0.0814362 
3506 2 -0.0381357 0.129943 -0.125647 0.184734 
666 1 0.0205423 -0.205278 0.0733035 0.218939 
43 1 0.0931251 0.0677205 0.103791 0.155019 
334 1 -0.0840551 -0.0660501 0.0689077 0.127186 
267 1 0.132855 0.0511304 -0.145565 0.203602 
99 1 0.0828619 0.120638 0.0760526 0.164935 
1189 1 -0.122466 -0.0086875 -0.187513 0.22413 
201 1 -0.0412906 -0.045142 -0.04938 0.0786199 
380 1 -0.00352549 0.0983479 -0.140297 0.171371 
1777 1 -0.00338641 -0.0170192 -0.0580142 0.0605538 
2597 1 0.222856 -0.00601186 0.057143 0.230144 
2484 1 0.150035 -0.0314632 -0.00351572 0.153338 
308 1 0.0192461 -0.00291742 -0.0846452 0.0868547 
3918 2 -0.0269144 0.150415 0.0930122 0.178886 
89 1 -0.105085 0.0339828 -0.000557231 0.110444 
300 1 -0.0258423 -0.0146699 0.0200176 0.0358292 
3582 2 0.0635935 -0.0170841 -0.0479485 0.0814559 
712 1 -0.0426439 0.0972222 -0.0595053 0.121703 
3836 2 -0.02343 0.0837208 -0.0495527 0.100068 
268 1 -0.0319383 -0.00827634 0.054811 0.063975 
788 1 -0.0233598 0.123278 -0.0614002 0.139689 
4091 2 -0.0248904 0.13886 -0.0152056 0.14189 
371 1 0.00048299 0.0351041 0.124173 0.12904 
3505 2 0.0939115 -0.0116604 0.00216894 0.0946575 
266 1 0.139873 -0.0604983 -0.098482 0.181447 
3571 2 0.00950992 -0.0732702 0.0763075 0.106216 
637 1 -0.0277981 -0.00837701 -0.0861375 0.0908987 
157 1 -0.0732753 -0.0352392 0.0858296 0.118228 
257 1 -0.0118136 0.00723084 0.0273384 0.0306469 
571 1 -0.00574468 0.0455964 0.0263245 0.0529624 
665 1 -0.152044 -0.046099 0.149761 0.218337 
448 1 -0.169046 -0.124074 0.00972806 0.209918 
827 1 0.0685614 0.0824746 0.0378689 0.11374 
3475 2 0.0985886 0.0344862 0.0565967 0.118795 
73 1 -0.0415483 0.0660735 -0.0053758 0.078236 
373 1 0.102925 0.00853772 0.0903885 0.137246 
247 1 0.03534 -0.0132188 -0.0723849 0.0816286 
107 1 0.05988 0.0624255 -0.0815588 0.118888 
675 1 -0.0753153 0.0524398 -0.113355 0.145848 
434 1 0.0709965 0.071219 -0.0397793 0.108144 
159 1 -0.0545979 0.0914025 -0.0443806 0.115347 
32 1 0.0642903 0.126674 -0.0116284 0.14253 
3579 2 0.0846875 -0.0288597 -0.130456 0.158189 
394 1 -0.0636478 0.00753277 0.0672885 0.0929276 
260 1 -0.00256906 0.0597223 0.0367285 0.0701594 
3972 2 -0.078883 0.056364 0.0793725 0.125297 
1801 1 -0.0457524 0.0423342 0.034765 0.0713728 
2122 1 0.0140584 0.0387358 0.181141 0.185769 
1966 1 0.0123771 -0.0681375 -0.0984692 0.120383 
291 1 -0.0110821 0.00649551 0.0549085 0.056391 
2047 1 0.0911102 0.0498796 0.0196513 0.105713 
1899 1 0.0451921 0.0595635 -0.0102789 0.0754705 
622 1 -0.0163995 0.151105 -0.0151398 0.152744 
1993 1 0.000580768 -0.0114072 0.0210527 0.0239516 
62 1 0.0114285 0.0317407 0.0624884 0.0710133 
2187 1 -0.0735614 0.0478429 -0.105264 0.137043 
4318 2 0.0922945 0.0263171 0.0214335 0.0983375 
44 1 0.0100225 0.0371756 0.0972567 0.104601 
824 1 0.0479299 -0.0179734 0.0822659 0.0968917 
1282 1 0.0264992 0.00249417 0.101202 0.104644 
3626 2 0.155001 0.0965631 -0.0416859 0.187316 
819 1 0.0658208 0.108152 0.0609394 0.140509 
773 1 -0.123297 -0.166466 0.0579396 0.215105 
270 1 -0.0647208 -0.0520219 -0.0556211 0.0999438 
14 1 -0.121457 -0.0578637 0.00499019 0.134629 
3540 2 0.0615859 -0.0564681 0.0133706 0.0846182 
997 1 0.0547856 -0.0431465 -0.083693 0.108939 
4275 2 -0.0385945 -0.0808539 -0.1775 0.19883 
164 1 0.0189872 0.0419168 0.137047 0.144566 
234 1 0.0428736 -0.00718527 0.0696574 0.0821092 
1125 1 -0.0159399 -0.039379 -0.0714836 0.0831547 
3985 2 -0.00342508 0.00845728 0.0421921 0.0431675 
328 1 0.0143498 -0.00744623 -0.0368291 0.0402212 
3474 2 0.0358976 0.00440049 -0.0760184 0.0841831 
543 1 -0.0622106 0.000271994 0.0136257 0.0636859 
293 1 0.0996859 -0.0788036 0.118461 0.173725 
3458 2 0.119821 -0.0279681 0.109443 0.164673 
390 1 -0.00943848 -0.00114913 -0.121089 0.121461 
3706 2 0.0863281 -0.234071 -0.154936 0.293678 
2169 1 0.0850822 0.0888148 -0.0807268 0.147119 
1786 1 0.0601996 0.00156706 -0.0198717 0.063414 
1478 1 -0.0365637 0.0653545 0.111563 0.134366 
87 1 0.0272091 0.0118752 -0.0469929 0.055585 
4090 2 -0.0774679 -0.034088 0.0382974 0.0928976 
142 1 0.0142764 0.0229381 0.012559 0.0297943 
1650 1 -0.0832139 -0.0990426 -0.0589905 0.142175 
153 1 0.0716861 -0.0283419 0.0140821 0.0783612 
374 1 0.0222737 -0.068659 -0.0805963 0.108194 
602 1 0.0291228 -0.0614506 -0.12683 0.14391 
1277 1 -0.0612572 0.00661664 0.0318803 0.0693728 
76 1 0.0284895 -0.00519737 0.167681 0.170163 
1370 1 0.0546181 -0.0265106 0.0750118 0.0965024 
221 1 -0.0244754 0.0692256 -0.00871466 0.0739404 
604 1 -0.10495 0.0345958 0.0718636 0.131817 
1161 1 -0.0324721 -0.0781781 0.0469212 0.0967876 
1718 1 -0.0678145 0.0392908 -0.12008 0.143393 
178 1 -0.077302 -0.278726 -0.0327512 0.291095 
295 1 -0.174024 -0.0908318 -0.0110262 0.196612 
1472 1 -0.105885 0.00086713 -0.032316 0.11071 
4159 2 0.000623602 -0.0325994 -0.0203395 0.0384292 
3467 2 0.0909984 -0.00359045 -0.0563114 0.107073 
3531 2 -0.0906213 -0.0956142 0.143897 0.195091 
2720 1 -0.0302393 0.0766699 -0.0751759 0.111553 
1851 1 -0.0233869 0.000439787 -0.00474743 0.0238679 
732 1 0.0313771 -0.0669919 0.0272647 0.0788403 
446 1 -0.302266 0.103435 0.0848231 0.330543 
3878 2 0.0711702 0.0852778 -0.0401141 0.118096 
3185 1 -0.179088 0.000269356 0.00889825 0.17931 
110 1 -0.0981258 0.0166901 0.0185188 0.101243 
2963 1 -0.0410931 0.0422098 -0.0251126 0.0640387 
2608 1 -0.0162571 -0.0092281 0.0086375 0.0205927 
3301 1 0.038607 0.0214378 0.134261 0.141337 
3759 2 -0.0400825 -0.0593844 -0.0398383 0.0819769 
4171 2 -0.106453 0.0305837 0.0617126 0.126791 
2118 1 -0.0131984 0.0357808 -0.0521204 0.0645833 
1742 1 -0.000640202 0.00547203 0.0478333 0.0481495 
642 1 0.0422348 -0.209404 0.00352179 0.21365 
3366 1 -0.0548637 0.0244003 0.0838477 0.10313 
144 1 0.115588 0.138068 0.00310054 0.180091 
681 1 0.0399122 -0.0102062 -0.106552 0.114239 
1666 1 0.0403284 -0.0615317 -0.0420621 0.0847452 
183 1 -0.0894495 -0.116929 -0.0430926 0.153397 
694 1 -0.139502 0.0120606 0.0641165 0.154004 
444 1 -0.0617133 0.0401029 -0.138758 0.157069 
869 1 -0.050636 -0.14758 0.142044 0.210999 
920 1 -0.0612659 -0.142782 0.0276707 0.157816 
53 1 0.0868705 -0.0101319 0.0507131 0.101099 
1450 1 -0.279997 -0.0211006 -0.0994995 0.297898 
1579 1 0.0355621 -0.0924448 0.0547368 0.113167 
51 1 0.115766 -0.0215329 -0.058596 0.131525 
4187 2 -0.0954159 -0.0886708 -0.149904 0.19859 
1694 1 0.00870387 -0.120638 0.232349 0.261945 
1590 1 0.0419091 0.0139396 -0.0715519 0.0840854 
2005 1 0.0642172 -0.107952 0.12166 0.174868 
736 1 -0.128934 0.0243016 -0.0225416 0.133126 
363 1 0.13289 0.00694105 -0.000354311 0.133072 
230 1 -0.00409928 0.0111783 0.107363 0.108021 
2538 1 0.0902221 -0.089557 -0.033206 0.131389 
357 1 -0.0576382 0.00222785 -0.0561399 0.080491 
3849 2 0.181005 -0.057428 -0.135204 0.233112 
4102 2 0.00121507 -0.129246 0.0603045 0.142627 
1032 1 0.0728642 0.0486276 0.0675777 0.110637 
78 1 0.00916578 0.0601842 -0.0245264 0.0656331 
564 1 0.290293 -0.0779246 0.0917845 0.314272 
797 1 0.151123 -0.0636781 -0.0213999 0.165381 
1476 1 0.243365 0.0378724 -0.0194203 0.247059 
872 1 -0.0920438 0.020266 -0.0669937 0.115633 
475 1 0.00959058 -0.0352662 0.000236445 0.0365477 
4119 2 0.27729 -0.129661 -0.103831 0.323238 
576 1 -0.136398 0.0434973 0.072337 0.160403 
507 1 0.0587787 -0.132136 0.0250042 0.146765 
248 1 0.0523533 -0.0437023 -0.0227207 0.0718818 
3597 2 -0.0752455 0.0606021 0.0875583 0.130388 
539 1 0.00752482 -0.0279279 0.0492046 0.0570761 
63 1 0.0694981 -0.00610658 0.118079 0.137149 
57 1 -0.0305535 -0.0687536 0.0198202 0.0778037 
854 1 -0.0621078 0.0195575 0.0185821 0.0677139 
668 1 0.0935628 -0.139006 -0.0907719 0.190568 
385 1 -0.0900043 -0.259435 0.103735 0.293544 
752 1 0.0102202 0.0631941 -0.0219684 0.0676798 
3650 2 -0.00814503 0.160817 -0.0822819 0.180828 
3736 2 -0.0904493 -0.183312 0.0460272 0.20953 
254 1 -0.159603 -0.151453 0.0148967 0.220529 
3637 2 -0.0118387 -0.0280131 0.0531627 0.0612468 
731 1 -0.025748 -0.0625257 0.00461476 0.067777 
2304 1 0.0909339 -0.152241 -0.00366291 0.177369 
610 1 -0.206207 0.0239213 -0.105471 0.232847 
292 1 -0.144429 0.021436 -0.00685212 0.146171 
313 1 -0.108087 0.00828784 0.0222959 0.110674 
2133 1 -0.0065242 -0.106639 -0.0402673 0.114175 
646 1 -0.108678 -0.0364759 -0.0949393 0.148845 
271 1 0.0315745 0.116806 0.0508007 0.13123 
584 1 -0.0479875 0.121742 -0.073001 0.149843 
3649 2 -0.0851251 0.00602258 0.0470232 0.0974358 
1148 1 -0.0399209 0.131577 0.135964 0.193372 
779 1 -0.110403 -0.0738063 0.0353557 0.137427 
621 1 -0.136996 0.0523912 0.0420781 0.152589 
16 1 -0.0381267 -0.0143251 0.123286 0.12984 
3635 2 -0.0694578 -0.232951 0.0472565 0.247637 
790 1 0.0967528 0.0444177 0.116724 0.157983 