ITEM: TIMESTEP
48
ITEM: NUMBER OF ATOMS
4320
ITEM: BOX BOUNDS pp pp pp
0.0000000000000000e+00 1.9309999999999999e+01
0.0000000000000000e+00 1.9309999999999999e+01
0.0000000000000000e+00 9.6549999999999994e+00
ITEM: ATOMS id type c_displacement[1] c_displacement[2] c_displacement[3] c_displacement[4] 
4012 2 0.0335909 -0.0762253 -9.10957e-05 0.0832985 
2361 1 -0.0317619 -0.0794068 -0.0645219 0.107132 
79 1 -0.0565045 -0.0786789 0.0232667 0.0996216 
781 1 0.0588341 -0.0313787 0.0802266 0.104319 
461 1 0.0019634 0.0179765 -0.0359595 0.0402504 
3704 2 0.00150834 -0.0769362 0.017044 0.0788159 
629 1 -0.0683144 0.0800394 0.0373147 0.111649 
1571 1 0.00928077 -0.00804552 -0.0300352 0.0324496 
58 1 0.106689 0.0650696 0.123453 0.175662 
2372 1 -0.0536704 -0.0392239 -0.00914077 0.0671012 
372 1 0.00369315 -0.041051 -0.0169945 0.0445829 
3504 2 -0.0156909 -0.0812576 0.0390549 0.0915111 
4130 2 0.0208824 -0.0226151 -0.0789912 0.084777 
1262 1 0.0549835 0.0935666 -0.0683185 0.128239 
907 1 -0.0977271 -0.0636394 -0.140339 0.182471 
3659 2 0.0052291 0.173749 -0.0987862 0.199937 
1298 1 0.0646497 0.0628945 -0.0993984 0.134221 
1716 1 0.0292211 0.0837402 -0.0642393 0.109512 
1182 1 0.0355319 0.0179667 -0.0107826 0.0412502 
683 1 -0.0181896 -0.0456266 0.0596089 0.077239 
1958 1 0.00769773 -0.0643185 0.0574184 0.0865621 
1554 1 0.0276145 -0.075599 -0.0729764 0.108643 
1037 1 -0.0135496 -0.160117 0.0207449 0.162023 
749 1 -0.103983 -0.0769041 0.0496624 0.138539 
3628 2 0.0519307 0.0566648 0.00745795 0.0772225 
946 1 -0.0426686 -0.00813202 -0.0618005 0.0755383 
2232 1 -0.0014307 -0.0564697 -0.0935663 0.109296 
7 1 0.0413385 0.0143989 0.0237793 0.0498162 
501 1 -0.000664855 0.0668178 -0.0793705 0.103753 
179 1 -0.0296024 -0.0308112 -0.0821605 0.0926065 
714 1 -0.0920632 -0.0422781 0.11721 0.154923 
4166 2 0.00817838 -0.0667943 0.0108827 0.0681674 
276 1 -0.0296121 0.0136306 0.110105 0.11483 
767 1 -0.0592434 -0.0277233 0.037648 0.0754701 
3890 2 -0.179696 -0.0485523 -0.118267 0.220533 
6 1 0.01252 0.132921 -0.0302621 0.136896 
2086 1 -0.01173 0.00568632 0.0457733 0.0475933 
224 1 0.0529589 -0.0390618 0.00453951 0.0659627 
3660 2 0.0292879 0.0195966 0.052358 0.0631124 
596 1 -0.0854658 -0.00939165 -0.0103729 0.0866037 
1214 1 0.0128398 -0.0656331 -0.0760102 0.101243 
3686 2 0.0331569 0.0203833 0.0251818 0.0463571 
427 1 -0.0799557 0.0758939 0.0957904 0.146043 
350 1 0.0133708 0.0609266 -0.0240758 0.0668616 
85 1 -0.0290339 0.0165772 0.0309353 0.0455496 
598 1 -0.0220209 -0.0493732 0.113603 0.12581 
3554 2 0.0284745 -0.0338358 -0.036013 0.0570316 
29 1 -0.0759831 0.0617968 0.0237757 0.100785 
464 1 -0.0108718 0.0226204 -0.0780868 0.0820209 
3619 2 -0.0493545 0.0449952 0.0921988 0.113847 
12 1 -0.00573673 -0.150321 -0.0160906 0.151288 
364 1 -0.123911 0.00606155 -0.0895964 0.15303 
1849 1 -0.0722451 -0.102686 -0.0422608 0.132476 
3663 2 -0.160892 0.0553133 -0.0419305 0.175225 
3517 2 0.0279958 0.00772526 0.107733 0.111579 
25 1 0.173688 -0.0117176 -0.0504773 0.181253 
4163 2 0.023712 -0.00117867 -0.026821 0.0358192 
399 1 0.0289406 0.0205193 -0.0239878 0.0428254 
4265 2 -0.0566141 0.0671264 0.0420492 0.0973614 
527 1 0.0307016 0.00638018 -0.041502 0.0520165 
200 1 0.0891914 0.0386992 0.0800858 0.125962 
1951 1 0.127732 0.107529 0.0493641 0.174111 
644 1 0.0321193 -0.0467439 0.0582879 0.0813273 
193 1 0.037059 0.093298 0.0164238 0.101723 
550 1 0.0111652 -0.0338297 -0.0331024 0.04863 
69 1 0.0223405 -0.00801074 -0.00870202 0.0252784 
842 1 -0.0820537 0.0389817 -0.0581426 0.107856 
578 1 -0.0195036 0.00493238 0.016463 0.0259952 
172 1 -0.0186537 -0.0627102 0.0229178 0.0693235 
381 1 -0.0128593 0.0225739 -0.0655755 0.0705343 
3524 2 0.0612149 -0.108154 0.140266 0.187401 
688 1 -0.0907577 0.101632 -0.025464 0.138616 
3651 2 -0.0438952 0.0523926 0.0373123 0.0778716 
2367 1 0.0461871 0.0144456 -0.0166251 0.0511695 
1244 1 -0.0893885 -0.0178466 0.010754 0.0917848 
796 1 -0.0841971 0.103147 -0.0361474 0.137968 
691 1 0.0560952 -0.0138117 0.0186326 0.0607009 
421 1 0.050213 0.0395083 0.0809036 0.10309 
597 1 -0.0344921 0.0603317 -0.00782867 0.069935 
3617 2 0.038033 0.00335932 -0.0474709 0.0609203 
120 1 0.0809786 0.108279 0.0600692 0.147953 
769 1 -0.0601259 -0.0111038 0.055007 0.0822447 
2142 1 -0.01186 0.0350495 -0.0316026 0.0486606 
3611 2 0.150554 0.0422054 0.146421 0.214212 
1915 1 -0.0187341 0.0532306 0.0383853 0.0682488 
2140 1 -0.00267627 -0.0105073 0.106444 0.106995 
3828 2 0.114251 0.0345798 0.0515179 0.130013 
3204 1 0.00357289 0.0725661 0.0402353 0.0830511 
175 1 0.100879 0.0452353 -0.0373681 0.116701 
2011 1 0.113245 0.0342745 -0.0364901 0.123817 
75 1 0.0053099 0.107179 -0.029809 0.111374 
547 1 -0.0157898 -0.0323763 -0.0885848 0.0956285 
4316 2 -0.0682446 0.0433805 -0.0434657 0.0918067 
559 1 0.0378557 0.0479535 -0.0132181 0.0625085 
717 1 -0.0134844 0.0791621 -0.0468742 0.092982 
242 1 0.00589068 -0.0367416 0.0702395 0.0794873 
3510 2 -0.0770279 0.0308429 0.0948565 0.126025 
130 1 0.0969666 -0.0346757 0.126687 0.163262 
143 1 -0.0166123 0.0598954 -0.0722873 0.0953356 
202 1 -0.141971 -0.0731737 -0.0650098 0.172443 
182 1 -0.127223 0.0442243 -0.0044961 0.134765 
84 1 0.0420717 -0.0387129 -0.0382534 0.0687898 
3633 2 0.0182392 -0.0707125 0.0392581 0.0829104 
35 1 -0.149155 0.0131865 0.11955 0.191607 
3612 2 0.0282681 0.0416634 -0.0457381 0.0680213 
40 1 0.15112 0.0939985 0.079389 0.194873 
4005 2 0.0580536 -0.0795612 0.0338699 0.104151 
718 1 -0.0709933 -0.00260644 -0.0550839 0.0898948 
134 1 -0.0291929 -0.0108244 0.0962905 0.101199 
511 1 -0.0494643 -0.0577849 0.0234127 0.0795862 
757 1 0.0451305 0.148016 0.00361007 0.154786 
3555 2 -0.0671927 0.0627014 0.0393582 0.099977 
3481 2 -0.029652 -0.00713424 -0.0416672 0.0516362 
135 1 0.012482 -0.0453561 -0.050146 0.0687576 
369 1 0.0505135 -0.0367947 0.0991754 0.117223 
2148 1 -0.0933178 -0.0543528 0.0203686 0.109897 
3462 2 0.0478023 -0.0700067 -0.16169 0.182564 
1914 1 0.000635336 0.0535311 0.0143162 0.0554161 
3661 2 0.0818345 -0.119485 0.0156973 0.14567 
1871 1 0.0161703 0.0326712 -0.0448916 0.0578286 
320 1 -0.0475296 -0.0276328 -0.0439001 0.0703552 
582 1 -0.0129021 -0.106271 -0.0364021 0.113071 
766 1 -0.0274095 0.0142129 0.00276247 0.0309987 
3552 2 -0.00128272 -0.0387938 0.00613108 0.0392962 
2290 1 -0.045911 0.0335455 0.0316409 0.0650712 
1794 1 0.00733536 0.0395253 0.0758885 0.0858786 
753 1 -0.0607127 0.0437135 0.0468349 0.0882633 
396 1 0.000673524 -0.012746 0.132578 0.133191 
496 1 -0.00482259 0.0116786 -0.0916068 0.0924741 
480 1 -0.0447751 -0.0568028 0.0796014 0.107554 
253 1 0.0478124 -0.00397863 -0.0123074 0.0495311 
4033 2 -0.0142046 0.0250375 -0.0580396 0.0647861 
347 1 -0.0548536 0.0263189 -0.00192073 0.0608711 
586 1 -0.0960174 0.046787 -0.111852 0.154658 
3671 2 0.0643431 0.0156308 -0.0702404 0.0965301 
37 1 0.00751611 -0.107327 0.00215684 0.107611 
782 1 0.0299223 -0.120781 -0.0262978 0.127181 
481 1 0.0749764 -0.0139211 -0.0781136 0.109165 
392 1 -0.0407848 0.0458628 -0.0972094 0.114963 
333 1 0.0502243 -0.0446509 -0.0188508 0.0697964 
342 1 -0.0189343 -0.0290387 -0.0344409 0.0488664 
1179 1 -0.00621712 -0.0123262 -0.0615097 0.0630399 
517 1 0.000525825 -0.0840461 -0.0262856 0.0880622 
1824 1 0.0595504 -0.0484921 0.111396 0.135302 
34 1 0.0583953 0.010676 0.0354512 0.0691432 
398 1 -0.00980529 -0.0452603 -0.0720076 0.0856139 
170 1 -0.0677355 -0.064556 -0.0551983 0.108639 
235 1 0.036489 -0.115831 0.0726136 0.141496 
3852 2 -0.0263616 -0.0127249 -0.0121133 0.0316794 
816 1 0.0416194 -0.0230764 -0.0619888 0.0781492 
3931 2 -0.124727 -0.122703 0.102513 0.202785 
274 1 -0.0260405 -0.0494375 -0.0141838 0.0576486 
30 1 0.00183811 -0.0182762 -0.0342328 0.0388495 
2066 1 0.0722662 -0.0416897 0.128657 0.15334 
1082 1 -0.00155933 -0.0853589 0.0769522 0.114936 
1372 1 0.00621964 -0.047547 0.0997285 0.110658 
1265 1 0.087189 -0.040033 -0.0875579 0.129888 
601 1 -0.0014647 0.0708745 0.0255551 0.0753551 
540 1 -0.00491157 -0.0187437 0.00351946 0.0196935 
589 1 -0.044561 0.144245 0.095629 0.17871 
958 1 0.115284 -0.0118081 -0.00236261 0.115911 
504 1 -0.0828783 0.0455844 -0.026595 0.098255 
1349 1 -0.0774909 0.0210842 -0.0615066 0.101156 
9 1 0.016361 -0.116677 0.0282353 0.121154 
149 1 -0.00516767 0.0725178 -0.0132941 0.0739072 
163 1 0.0229674 -0.12542 0.0304634 0.131094 
4247 2 0.0155456 -0.0632315 -0.0485263 0.0812077 
1584 1 0.160229 -0.0115889 -0.0919416 0.185097 
3570 2 -0.0302905 -0.0873891 -0.0021341 0.0925144 
237 1 0.019363 0.0551905 0.0562165 0.0811247 
490 1 -0.00802714 -0.0691258 -0.0258332 0.0742304 
50 1 -0.044 -0.0434023 0.0239186 0.0662711 
152 1 0.0637665 0.00575813 -0.0579014 0.0863243 
3652 2 -0.032054 -0.0289846 0.00228422 0.0432756 
3823 2 0.0399466 0.0908655 -0.117119 0.153522 
902 1 0.0295962 0.0644777 -0.0179774 0.0731881 
3574 2 -0.0391858 0.060284 -0.0602529 0.0938089 
770 1 -0.0133336 -0.0671814 -0.042056 0.0803731 
154 1 -0.0193794 -0.0404177 -0.0100362 0.0459334 
116 1 0.0928876 -0.0582252 0.0491265 0.120132 
710 1 -0.0877005 -0.148912 -0.0874985 0.193707 
1956 1 -0.024971 0.0305182 -0.0362314 0.0535502 
1810 1 -0.111515 -0.036791 0.0713931 0.137427 
2072 1 -0.0620214 -0.0334444 0.00489818 0.0706341 
1649 1 -0.0493612 0.0232176 -0.067513 0.0867963 
186 1 -0.0504401 0.0348354 0.0763216 0.0978912 
1063 1 -0.0614502 0.0936422 -0.17789 0.210213 
432 1 -0.123608 0.0742025 -0.130279 0.194313 
2495 1 -0.058403 -0.105127 0.072982 0.140673 
3896 2 0.00421717 -0.0137315 -0.0701219 0.071578 
4115 2 0.0242164 -0.00546715 -0.0240675 0.034577 
913 1 0.0588863 -0.0541309 0.0274478 0.0845644 
1068 1 -0.0046759 0.0147461 -0.0169163 0.0229232 
265 1 -0.0785276 0.00108535 -0.0452673 0.0906471 
1287 1 0.0375139 0.109809 0.0194092 0.117652 
3799 2 0.0654637 -0.0643386 -0.120678 0.151619 
554 1 0.0538393 -0.0754567 -0.0459733 0.103469 
1414 1 -0.0175496 0.0455665 -0.0710099 0.0861783 
213 1 0.00422212 -0.0137759 0.02833 0.0317835 
341 1 -0.081894 -0.0410988 -0.0368573 0.0987634 
3682 2 -0.0331443 0.0404081 -0.0539969 0.0751467 
754 1 -0.0753815 0.0660033 0.0111308 0.10081 
112 1 -0.0663218 0.0465533 0.00350955 0.0811055 
1041 1 -0.0175117 -0.0486196 0.0294013 0.0594556 
119 1 0.0200673 0.0342007 0.0589761 0.0710673 
415 1 -0.0250866 0.0386838 -0.0438408 0.0636223 
995 1 -0.0666346 0.0471274 0.0251141 0.0853926 
4128 2 0.0036846 -0.036798 0.147827 0.152383 
8 1 0.0423567 0.0629331 0.00322116 0.0759279 
94 1 0.0235604 -0.0591315 -0.00763676 0.0641089 
48 1 0.0366537 0.0237717 0.0303841 0.0532145 
437 1 -0.0221437 -0.0617477 -0.0467198 0.0805349 
3866 2 0.06159 0.0294454 -0.0255054 0.0728758 
2206 1 0.0201385 -0.00112995 -0.0203373 0.0286434 
3490 2 -0.0979548 0.0144148 -0.0202694 0.101063 
3072 1 -0.0169078 -0.0692465 0.0449698 0.0842807 
3002 1 0.0785432 0.109362 0.0425007 0.141192 
92 1 0.0443262 0.0888651 0.107625 0.146441 
335 1 -0.0359906 0.07724 -0.0441171 0.0959565 
2192 1 0.00259737 -0.00488791 0.0682431 0.0684672 
1186 1 0.0257512 -0.00933434 -0.000911339 0.0274059 
1114 1 0.0585802 0.0171694 0.0303153 0.0681575 
1821 1 -0.0446916 -0.0673793 -0.0691276 0.106376 
1922 1 0.035908 -0.0876072 0.0376478 0.101891 
451 1 -0.105672 -0.0448855 -0.00475648 0.114908 
3960 2 -0.000400578 -0.0378394 0.0276339 0.0468574 
100 1 -0.0281361 0.0459599 -0.0871515 0.102466 
1180 1 0.0137983 -0.0486631 -0.085821 0.0996179 
165 1 0.0667952 -0.0331172 0.000744077 0.0745581 
388 1 -0.0737702 -0.0517385 -0.0495472 0.102829 
3742 2 0.0792168 -0.0532409 0.0205931 0.097642 
323 1 -0.124576 0.143557 -0.0555069 0.198012 
288 1 -0.068809 0.0162197 0.00247458 0.0707381 
3942 2 -0.0720531 0.0639012 0.0983862 0.137677 
66 1 0.0655378 0.0301086 0.058256 0.0927119 
340 1 0.00443768 0.0200392 -0.0305394 0.0367956 
138 1 -0.0192753 -0.0121911 0.0163877 0.0280841 
879 1 -0.000299676 -0.0200109 -0.0742524 0.0769022 
3808 2 0.070648 0.0599039 -0.0165441 0.0940921 
834 1 0.00302153 0.022472 0.0172544 0.0284927 
18 1 -0.0734848 -0.0621211 -0.0956183 0.135654 
3679 2 0.0416879 -0.0344548 -0.0314992 0.0625876 
52 1 0.0560213 -0.0470653 -0.0069197 0.0734943 
407 1 -0.00487358 -0.000583092 -0.0689455 0.06912 
360 1 0.0615432 -0.0501314 -0.0951735 0.12393 
2885 1 -0.103261 -0.0519134 -0.0189462 0.117119 
3526 2 -0.0163185 -0.204242 -0.0599699 0.213489 
310 1 -0.0757657 -0.0399094 -0.00580687 0.0858308 
326 1 0.109599 -0.00903287 0.0615658 0.126031 
227 1 -0.0199269 -0.0380088 -0.028606 0.0515757 
2068 1 -0.122823 -0.0338427 -0.0994737 0.161635 
456 1 0.0366486 -0.0108082 0.0365358 0.0528659 
279 1 -0.0197955 0.025331 0.0997155 0.10477 
305 1 -0.0312043 0.034162 -0.0496189 0.0678439 
49 1 0.000887828 0.0940623 0.0584222 0.110732 
3512 2 0.0108829 -0.0988602 0.0422624 0.108064 
11 1 -0.0707023 -0.169928 0.02722 0.186052 
189 1 -0.0597533 0.102104 0.0645748 0.13478 
2271 1 -0.112376 -0.0354752 -0.0146042 0.118744 
319 1 -0.0906023 -0.0550029 -0.00365284 0.106054 
3566 2 0.0152137 0.0653254 -0.0608056 0.0905328 
71 1 0.0177319 0.00967006 0.035192 0.0405759 
1560 1 -0.0234275 -0.0304383 0.0497009 0.0628133 
190 1 -0.0286846 -0.019807 0.0793844 0.0867006 
123 1 0.0733442 0.0106939 0.078877 0.108237 
27 1 -0.0400824 -0.00206211 -0.0324939 0.0516402 
162 1 -0.00786953 0.00920614 -0.0993142 0.10005 
255 1 -0.0977728 0.00887994 -0.0305813 0.102828 
304 1 -0.0841099 -0.00483751 -0.0547157 0.100457 
321 1 0.00735789 -0.0662567 0.144629 0.159253 
682 1 -0.0632191 0.0333266 0.00561999 0.0716861 
3469 2 0.0543611 0.0422255 -0.0864034 0.11047 
3539 2 0.0265446 0.0321166 0.0986229 0.107063 
128 1 0.0595148 -0.0502148 -0.0688508 0.103942 
3562 2 0.105557 0.0261781 0.0960992 0.145129 
560 1 -0.134844 -0.0542256 -0.012542 0.145879 
212 1 -0.0497399 0.0540834 -0.0364786 0.0820351 
355 1 0.0227695 0.0624148 0.101895 0.121641 
156 1 0.0379024 0.0745132 0.064884 0.105824 
3620 2 0.0183562 -0.0608457 -0.0120577 0.064688 
1823 1 0.180431 -0.12598 -0.0907725 0.238046 
1805 1 -0.0619842 0.0684141 0.0917589 0.130162 
2599 1 -0.0623127 0.015335 0.0447672 0.0782441 
327 1 0.0538685 0.00513981 0.0161574 0.0564739 
137 1 0.0636783 0.0151627 0.0414389 0.0774727 
2334 1 -0.00748066 0.0411176 0.0423954 0.0595314 
3698 2 0.0362245 -0.070662 0.0102268 0.080062 
555 1 -0.0198377 -0.0498537 -0.0533061 0.0756338 
4178 2 0.0170963 -0.0820644 0.0512768 0.0982658 
290 1 -0.0107655 0.0438383 -0.0121535 0.0467483 
284 1 0.00615725 0.0166289 -0.0517027 0.054659 
3543 2 -0.0225342 -0.0186146 0.0370284 0.0471741 
366 1 0.0328896 -0.0402015 0.0594502 0.0789444 
55 1 -0.0141741 0.0441796 -0.0134337 0.0483033 
273 1 -0.0261896 -0.0557555 -0.0272828 0.0673715 
3468 2 0.0767185 0.0047805 0.0560255 0.0951181 
316 1 0.116805 -0.00475082 0.106993 0.158472 
81 1 -0.0620471 0.00127532 0.0130883 0.0634253 
322 1 0.0377261 -0.0378596 0.0219311 0.0577717 
239 1 -0.0136319 0.0180475 -0.06035 0.0644489 
734 1 -0.0264243 -0.0752528 -0.0504253 0.0943607 
384 1 0.0900801 -0.0651564 -0.0763913 0.13489 
3476 2 -0.000922534 0.0985174 0.00978379 0.0990064 
311 1 -0.0260755 -0.0534823 -0.0794161 0.0992331 
3471 2 0.0137515 0.0314754 0.0415873 0.053938 
1938 1 0.0462285 -0.0663423 -0.00178188 0.0808798 
139 1 0.148765 -0.0384104 -0.0098007 0.153956 
727 1 0.0748252 -0.0561153 0.0485886 0.105397 
1885 1 -0.0033254 0.032397 -0.0684913 0.0758399 
2184 1 0.135681 0.158968 -0.0914629 0.228135 
2494 1 -0.159043 -0.0523184 -0.15041 0.225067 
2091 1 -0.0300116 0.00335469 -0.0652375 0.071888 
281 1 0.0336944 0.104773 0.113701 0.158243 
863 1 0.0148398 0.0804731 -0.0505755 0.0961978 
176 1 -0.0732625 0.0620797 -0.0491077 0.107856 
3710 2 -0.00431142 0.0686641 -0.047651 0.0836897 
3572 2 -0.0043314 -0.0997741 -0.0765923 0.125857 
4197 2 -0.0747168 0.0643847 -0.0535074 0.11221 
343 1 -0.0298449 -0.0415034 -0.113472 0.124456 
282 1 -0.0382482 -0.0369544 -0.0270637 0.0596741 
1038 1 -0.0109985 0.0775704 0.0389525 0.0874953 
408 1 0.175392 0.0445313 -0.0185454 0.181905 
412 1 0.139841 -0.053608 -0.0148904 0.150502 
820 1 0.119156 0.0147113 0.0550319 0.132072 
585 1 -0.0807247 -0.0378254 -0.0869247 0.124512 
3609 2 0.0606687 -0.0925148 0.0165951 0.111871 
719 1 -0.0166133 0.066963 -0.0263765 0.0738632 
608 1 0.0158796 0.0331555 0.0209858 0.0423303 
106 1 -0.00812489 0.0586299 0.0574582 0.082492 
1047 1 -0.119319 -0.0363038 -0.0267183 0.12755 
3573 2 0.0139922 0.0361174 -0.0715179 0.0813331 
751 1 -0.0149705 -0.0175188 -0.0709813 0.0746282 
259 1 0.0697154 -0.0464521 0.0100252 0.0843714 
245 1 -0.0810399 -0.0337147 -0.0348095 0.0944238 
613 1 -0.0510561 -0.0342524 0.125677 0.13991 
4296 2 -0.0280712 0.0494069 0.0276113 0.0631777 
272 1 -0.108226 -0.111363 -0.0241995 0.157162 
4239 2 -0.0543423 -0.110337 -0.0672938 0.140199 
88 1 0.0791053 0.0979108 0.0897443 0.15459 
4 1 0.0914429 -0.00906557 -0.0723328 0.116944 
361 1 0.0839694 0.104885 -0.142868 0.19612 
358 1 -0.0508141 -0.024102 -0.0301272 0.0638015 
194 1 0.0104119 0.0394354 -0.084727 0.0940331 
2373 1 0.0183643 -0.00492296 -0.104405 0.106122 
1982 1 0.0247079 0.000769676 0.0301278 0.0389713 
3953 2 0.00174686 0.0246731 0.0771968 0.0810627 
414 1 0.0211654 0.0204196 -0.0617231 0.0683716 
3186 1 0.0911164 -0.0852532 0.00947252 0.12514 
177 1 0.0587125 -0.0405446 0.0540968 0.0895404 
1962 1 -0.0380606 0.0569367 0.0975203 0.119166 
706 1 0.0194708 0.00521473 -0.0391427 0.0440279 
1544 1 -0.00531981 -0.0875848 0.0487223 0.100366 
4160 2 -0.0338081 0.0238886 -0.0239127 0.0478066 
19 1 -0.0476873 0.00532112 -0.0976915 0.108839 
3624 2 -0.00711571 -0.0136641 -0.0650274 0.0668274 
115 1 0.101051 -0.0696547 -0.037461 0.128321 
1102 1 -0.0728201 -0.0209276 0.0117295 0.0766702 
2048 1 0.0637807 -0.0222237 -0.0370023 0.0770133 
649 1 0.044778 0.11523 -0.0433236 0.130996 
113 1 0.0407582 -0.0234494 -0.00426042 0.047215 
1150 1 0.0146619 -0.00393459 0.0557384 0.0577687 
620 1 -0.0272249 -0.0219085 -0.0103877 0.0364566 
739 1 -0.0855181 -0.0314498 0.0124135 0.0919594 
2412 1 0.0149506 0.0468755 -0.0113418 0.0504923 
3746 2 0.0887946 0.03187 -0.158276 0.18426 
1225 1 0.00439063 0.0609251 0.0911447 0.10972 
241 1 0.0986009 0.0137305 0.000143927 0.0995524 
83 1 0.0281503 0.0125994 -0.0206678 0.037126 
1006 1 0.0362842 0.00532034 -0.00398857 0.0368884 
4046 2 -0.0608454 -0.0958529 -0.0384518 0.119869 
96 1 0.0106074 -0.117111 0.00895816 0.117931 
411 1 0.0746227 0.0593464 0.0816075 0.1255 
2454 1 -0.0679519 0.0150463 0.0102385 0.0703469 
404 1 -0.0812058 0.0662761 0.0730665 0.127772 
226 1 0.0511122 -0.0175724 0.074307 0.0918846 
534 1 0.0418483 -0.0241609 0.116753 0.126358 
3538 2 -0.00852313 0.0457912 -0.0400433 0.0614243 
761 1 0.0670621 -0.0257502 0.046275 0.0854504 
246 1 0.0807208 -0.0688814 0.0264336 0.109358 
2229 1 -0.00112452 -0.116936 0.00934477 0.117314 
146 1 -0.00385618 -0.027029 -0.0565238 0.0627724 
3608 2 0.0658051 -0.007582 0.0045583 0.0663971 
503 1 -0.0318459 -0.0006396 0.038825 0.050219 
505 1 0.109554 -0.0385445 0.00933563 0.116511 
1430 1 -0.0858895 -0.0409872 -0.0255799 0.0985458 
97 1 -0.0336476 0.041032 -0.0833575 0.0988143 
1723 1 0.035477 0.00558469 -0.0866677 0.0938142 
3561 2 0.0539598 0.132202 -0.0370078 0.147508 
20 1 -0.0669361 -0.0678473 -0.00551347 0.0954678 
263 1 -0.0589766 0.136891 0.00289351 0.149083 
817 1 0.0936536 -0.064695 0.0175187 0.115167 
1034 1 0.0241259 0.0222655 0.0171656 0.0370468 
353 1 0.0408312 -0.00624495 0.132208 0.13851 
1260 1 0.054396 0.106672 -0.0263125 0.122598 
998 1 0.0290029 0.0685652 -0.0548019 0.0924424 
1932 1 0.0991549 -0.142869 -0.0264556 0.175907 
36 1 0.0963853 -0.124902 -0.00631874 0.157894 
38 1 -0.000607559 0.00278442 -0.0688591 0.0689181 
3130 1 -0.0298666 -0.00646777 -0.0509298 0.0593944 
1973 1 0.0831824 -0.0192614 0.138972 0.163106 
307 1 0.0122562 -0.0536586 -0.0585384 0.0803505 
2714 1 0.0848971 0.0375319 0.0194597 0.0948412 
28 1 0.0580861 0.0235876 0.00659847 0.0630389 
1937 1 0.000261888 0.0318766 -0.0462995 0.0562124 
562 1 -0.0764872 -0.112324 0.00503247 0.135986 
3011 1 -0.0563165 -0.00495224 0.00242799 0.0565859 
410 1 0.0858064 -0.0477444 0.0332005 0.103656 
693 1 0.0687634 0.102718 0.105874 0.162754 
367 1 -0.0214968 0.00406913 0.000726757 0.0218906 
318 1 0.0667542 0.0344567 -0.0645657 0.0990562 
735 1 0.10463 -0.0238536 0.0192733 0.109032 
600 1 -0.0202963 0.0654822 0.0304199 0.0750015 
3590 2 -0.041093 0.0556024 -0.0233165 0.0729652 
3636 2 0.0462018 -0.0983145 0.0534602 0.121072 
26 1 -0.097367 0.066459 0.060716 0.132603 
1199 1 0.0372876 0.0179992 -0.0682886 0.0798603 
614 1 -0.0207579 -0.038436 -0.0189134 0.0476018 
459 1 0.0267624 -0.0795126 -0.0595112 0.102859 
3645 2 0.0720217 0.108022 0.0535071 0.140424 
574 1 0.0447867 0.0140519 0.0289624 0.0551554 
780 1 0.10437 -0.00730578 -0.00442083 0.104719 
161 1 -0.0796293 0.0101397 -0.00306573 0.0803308 
309 1 0.117278 0.0705947 0.0140491 0.137605 
365 1 0.0182414 -0.139968 -0.0490678 0.149437 
191 1 -0.0632686 0.0741372 0.0122906 0.0982359 
1766 1 -0.0276743 0.0576052 -0.0438698 0.0775163 
2775 1 0.0349731 -0.0760404 -0.0655716 0.106324 
1030 1 0.0863384 -0.0624072 0.0243184 0.109272 
1505 1 0.118138 0.13818 0.113416 0.214275 
3872 2 -0.00269551 0.033771 -0.00526969 0.0342858 
580 1 -0.0384765 -0.0416144 -0.00711172 0.0571207 
2054 1 -0.10341 -0.0694691 -0.0575143 0.137213 
2064 1 0.0947028 0.00786271 -0.0596191 0.112182 
529 1 -0.00899996 0.0483028 -0.0835864 0.096958 
402 1 -0.0166848 0.0513778 0.0183301 0.0570444 
124 1 -0.00583472 -0.0918103 0.0433886 0.101714 
744 1 0.0974406 0.0069475 0.0206145 0.0998394 
185 1 0.0805598 -0.0394869 0.0971722 0.132256 
315 1 -0.0317566 -0.0467042 -0.0471956 0.0736016 
655 1 -0.0346048 -0.0289014 0.126541 0.134333 
765 1 -0.0178882 0.0746658 0.0247605 0.0806725 
140 1 0.0317643 0.0781255 -0.0744042 0.112466 
59 1 -0.0440493 -0.0126902 0.0463321 0.065177 
54 1 0.00512023 0.0142356 0.0180445 0.0235472 
3506 2 -0.0127573 0.0901138 -0.072563 0.116399 
666 1 -0.0444424 -0.11766 0.0724046 0.145125 
43 1 0.0672026 0.103336 0.0739487 0.143746 
334 1 -0.0138031 -0.00377166 0.00698887 0.0159247 
267 1 0.132468 0.03829 -0.0326958 0.141715 
99 1 0.0612639 0.0806512 0.084996 0.13222 
1189 1 -0.0859191 -0.0444637 -0.141244 0.171199 
201 1 -0.0109853 -0.0881617 -0.0544626 0.104208 
380 1 0.0253854 0.117845 -0.152974 0.194764 
1777 1 0.0172748 -0.0167284 -0.0451053 0.0511151 
2597 1 0.237383 -0.0282907 -0.0340156 0.241471 
2484 1 0.120963 -0.0534493 -0.0911401 0.160609 
308 1 -0.0345153 -0.0191135 -0.0348459 0.0526391 
3918 2 -0.0401333 0.0766277 0.0399371 0.0952757 
89 1 -0.0758832 0.0581269 -0.0327687 0.101048 
300 1 -0.00902047 0.0147102 6.90728e-05 0.0172559 
3582 2 0.0207257 0.0388685 0.0140361 0.0462313 
712 1 -0.0825484 0.0505532 0.0610289 0.114431 
3836 2 -0.0143494 0.0422884 -0.0664688 0.0800769 
268 1 0.0101355 -0.0108097 -0.00290578 0.0151004 
788 1 -0.00984413 0.0746907 -0.100162 0.125331 
4091 2 0.000689328 0.142659 -0.000920594 0.142664 
371 1 0.0411067 0.0713716 0.0923473 0.12374 
3505 2 0.0268602 -0.0192336 0.0722266 0.0794234 
266 1 0.0713646 -0.0672026 -0.0523584 0.111133 
3571 2 -0.0346069 -0.00159992 0.0573074 0.0669652 
637 1 -0.00627105 -0.000864487 -0.0750273 0.0752939 
157 1 -0.0240739 0.0014504 0.0509362 0.0563574 
257 1 0.0305697 0.028428 0.0149184 0.0443307 
571 1 -0.0390456 0.028867 -0.0358577 0.0603625 
665 1 -0.131802 -0.000433569 0.156672 0.204739 
448 1 -0.0904353 -0.0606212 0.0269202 0.112152 
827 1 0.095523 0.0994539 -0.00293039 0.137929 
3475 2 0.0279446 0.00546644 0.0421375 0.0508562 
73 1 -0.0271309 0.0920236 -0.000846871 0.0959434 
373 1 0.0827097 -0.0255362 0.0807647 0.118389 
247 1 0.0179435 -0.0300128 -0.0458957 0.0576988 
107 1 0.0599893 0.0218631 -0.00330906 0.0639348 
675 1 -0.0364798 0.069661 -0.104736 0.13097 
434 1 -0.0185456 0.0608115 0.0242287 0.0680368 
159 1 -0.0617643 0.0366049 -0.0155268 0.0734563 
32 1 0.0577009 0.0840231 0.0102946 0.102446 
3579 2 0.053774 -0.0700749 -0.0498966 0.101449 
394 1 -0.0396016 0.0154213 0.0509989 0.0663852 
260 1 -0.043074 0.0404469 0.0129399 0.0604877 
3972 2 -0.0528286 0.0310569 0.0970348 0.114766 
1801 1 -0.0668549 0.0231753 0.0680384 0.0981626 
2122 1 -0.0270089 0.00374592 0.109708 0.113046 
1966 1 0.0016453 -0.0492055 -0.0766542 0.091103 
291 1 -0.00776915 0.016177 0.0239437 0.0299225 
2047 1 0.0746927 0.0151583 0.0641799 0.0996385 
1899 1 0.00340786 0.0887747 0.00914848 0.0893099 
622 1 -0.0579949 0.0473957 0.00650637 0.0751804 
1993 1 -0.0232109 -0.00306058 -0.0170508 0.0289628 
62 1 0.0315281 0.0709022 0.0456536 0.09003 
2187 1 -0.0218602 -0.014372 -0.103663 0.106913 
4318 2 0.0594613 -0.0244577 -0.00361303 0.0643962 
44 1 -0.020654 -0.0355838 0.0720098 0.0829349 
824 1 0.0133074 -0.00985278 0.0459849 0.0488751 
1282 1 -0.0151692 0.0123404 0.104784 0.106593 
3626 2 0.0805835 0.0637759 -0.0211553 0.104922 
819 1 0.036087 0.0436475 0.0837394 0.101092 
773 1 -0.109169 -0.112877 0.0338024 0.160629 
270 1 0.00899028 -0.065499 0.0101329 0.0668852 
14 1 -0.0780171 0.00250191 -0.0496744 0.0925228 
3540 2 0.0527197 -0.0156547 -0.0154082 0.0571126 
997 1 0.0920174 -0.0522333 -0.0203378 0.107746 
4275 2 -0.0273939 -0.070574 -0.100944 0.126177 
164 1 0.0585343 0.0596373 0.149862 0.171585 
234 1 -0.0104476 -0.0561148 0.0703778 0.0906149 
1125 1 -0.0083347 0.0461923 -0.0706394 0.0848123 
3985 2 -0.0764528 -0.00849725 0.0846582 0.114386 
328 1 0.0317662 0.0156067 -0.0452999 0.0574869 
3474 2 0.00548234 0.00972901 -0.0368973 0.0385502 
543 1 -0.0806266 -0.00646382 -0.0131074 0.0819405 
293 1 0.0930221 -0.0532986 0.0502197 0.118389 
3458 2 0.0705787 -0.0510717 0.0762839 0.115797 
390 1 -0.0151359 -0.0396073 -0.0227831 0.0481342 
3706 2 0.105073 -0.138903 -0.0651108 0.18594 
2169 1 0.0798249 0.0911418 -0.00461568 0.121244 
1786 1 -0.0131557 0.0177059 -0.0836855 0.0865438 
1478 1 0.000210561 0.00338578 0.142735 0.142775 
87 1 0.0148438 -0.0202693 -0.0284908 0.0379856 
4090 2 -0.00498164 -0.0515464 0.041467 0.0663427 
142 1 -0.0141805 0.0295706 0.0507053 0.0603865 
1650 1 -0.0784669 -0.0647942 -0.0832923 0.131503 
153 1 0.00964176 0.0370933 0.00995101 0.0395967 
374 1 0.0656959 -0.0128795 -0.0369735 0.0764779 
602 1 0.00944645 -0.0683443 -0.0510891 0.0858503 
1277 1 -0.0579885 0.0179384 0.0196002 0.0637857 
76 1 -0.0128764 -0.0508374 0.0893073 0.103567 
1370 1 0.0591744 -0.0313478 0.0999907 0.120343 
221 1 -0.0107324 0.0655339 -0.0377083 0.0763662 
604 1 -0.0167109 0.0605169 0.099595 0.117731 
1161 1 -0.0747567 -0.0356651 0.00573644 0.083027 
1718 1 -0.131217 0.0230078 -0.117195 0.177432 
178 1 0.0177495 -0.180434 -0.00998392 0.18158 
295 1 -0.106395 -0.0550747 0.0210394 0.121638 
1472 1 -0.0720354 -0.0420123 0.0235474 0.0866522 
4159 2 -0.0099099 -0.0393908 -0.0326748 0.0521295 
3467 2 0.109178 -0.0135552 0.021928 0.11218 
3531 2 0.00146562 -0.055383 0.119753 0.131948 
2720 1 -0.0933718 0.0805281 -0.0582527 0.136369 
1851 1 -0.00608609 0.015281 -0.00275737 0.0166779 
732 1 -0.0398461 -0.0959644 0.0171059 0.105307 
4009 2 -0.00588065 0.122584 -0.0182235 0.124071 
3878 2 0.0301547 0.030841 -0.0292392 0.0521096 
3185 1 -0.159474 -0.0428293 0.0332655 0.168443 
110 1 -0.0494464 -0.0207 0.0353352 0.0642029 
2963 1 -0.036153 -0.00798088 -0.0335743 0.0499797 
2608 1 -0.0441954 0.0109313 -0.0238325 0.0513879 
3301 1 0.00333337 0.00454851 0.0460796 0.0464234 
3759 2 -0.0282011 -0.0149233 -0.0198425 0.037573 
4171 2 -0.038956 0.0218088 0.00146734 0.0446694 
2118 1 0.000979811 0.0707349 -0.0357884 0.0792792 
1742 1 0.0501962 -0.0652281 0.0263883 0.0864333 
642 1 0.0318026 -0.15111 0.0668866 0.168284 
3366 1 -0.0430144 0.0157926 0.097082 0.107353 
144 1 0.148202 0.149385 0.0218826 0.211562 
681 1 0.0581376 -0.047482 -0.0985784 0.123904 
1666 1 0.103688 -0.0555893 -0.0309618 0.121655 
183 1 -0.111013 -0.0766354 -0.0355538 0.139502 
694 1 -0.154418 0.0116775 0.0744657 0.171833 
444 1 -0.0331376 0.060056 -0.11471 0.133654 
869 1 -0.038232 -0.129374 0.11261 0.175728 
920 1 -0.00599433 -0.0995986 -0.0449981 0.109456 
53 1 0.0447657 -0.000211089 0.0362961 0.0576317 
1450 1 -0.19186 -0.0529229 -0.0544832 0.206348 
1579 1 0.1184 -0.0963853 0.0696535 0.16781 
51 1 0.107759 0.0351829 0.00856982 0.113681 
4187 2 -0.107965 -0.0694003 -0.183205 0.223689 
1694 1 -0.00869071 -0.110884 0.117417 0.161733 
1590 1 0.0256336 0.0240299 -0.0622946 0.0715202 
2005 1 -0.0178724 -0.0100235 0.128794 0.130414 
736 1 -0.0643814 -0.00577531 -0.0501839 0.0818336 
363 1 0.06388 -0.000970904 0.0340752 0.0724066 
230 1 0.025024 0.0340384 0.156872 0.162461 
2538 1 0.0218701 -0.00812489 -0.0671392 0.0710774 
357 1 -0.0822082 0.00431196 0.00536447 0.0824958 
3849 2 0.130996 -0.030337 -0.0312123 0.138038 
4102 2 0.0456311 -0.115478 0.0441771 0.131791 
1032 1 0.0738639 -0.00914979 0.0245682 0.0783785 
78 1 -0.0055029 0.0445836 -0.0356358 0.0573401 
564 1 0.16016 -0.00931938 0.115352 0.197596 
797 1 0.151622 -0.0552081 -0.0562528 0.170885 
1476 1 0.167343 -0.0272478 -0.0286324 0.171947 
872 1 -0.100322 -0.0326404 -0.0810458 0.133035 
475 1 -0.0465019 0.000836022 0.0312561 0.0560363 
4119 2 0.157286 -0.0914201 -0.0817658 0.199455 
576 1 -0.151983 0.0333651 0.0611017 0.167169 
507 1 0.0612751 -0.0529425 0.0208159 0.0836113 
248 1 0.0823561 -0.0514779 -0.0118717 0.097844 
3597 2 -0.0654517 0.0504406 0.0642447 0.104669 
539 1 0.0109439 0.0118742 0.0821705 0.0837422 
63 1 0.0688576 0.022161 0.0579405 0.0926799 
57 1 -0.0814647 -0.00464842 0.00609835 0.0818248 
854 1 -0.00449778 0.0522617 0.0134804 0.0541593 
668 1 0.117931 -0.100555 -0.125095 0.199167 
385 1 -0.106605 -0.201214 0.0213064 0.228705 
752 1 0.0366947 0.0169516 -0.00835696 0.0412759 
3650 2 -0.00101493 0.115189 -0.00838952 0.115499 
3736 2 -0.0843984 -0.128774 -0.0244813 0.155901 
254 1 -0.0923064 -0.127733 -0.016056 0.158411 
3637 2 -0.0137536 0.0108973 0.100196 0.101721 
731 1 0.0312176 0.00964465 -0.0583038 0.0668348 
2304 1 0.110306 -0.0781385 -0.0681563 0.151388 
610 1 -0.114084 -0.0102985 -0.109086 0.15818 
292 1 -0.095299 0.0153012 0.0139856 0.0975276 
313 1 -0.1017 0.00150704 0.0436014 0.110662 
2133 1 0.0030396 -0.127287 0.010501 0.127755 
646 1 -0.0928574 -0.0147392 -0.0579892 0.110465 
271 1 -0.00873328 0.074368 0.0754408 0.106293 
584 1 -0.0403105 0.066835 -0.0973358 0.124764 