ITEM: TIMESTEP
34
ITEM: NUMBER OF ATOMS
4320
ITEM: BOX BOUNDS pp pp pp
0.0000000000000000e+00 1.9309999999999999e+01
0.0000000000000000e+00 1.9309999999999999e+01
0.0000000000000000e+00 9.6549999999999994e+00
ITEM: ATOMS id type c_displacement[1] c_displacement[2] c_displacement[3] c_displacement[4] 
4012 2 0.0118994 -0.0585824 0.00626473 0.0601061 
2361 1 -0.0188197 -0.024711 -0.0411403 0.0515495 
79 1 -0.0568284 -0.0690053 0.0310728 0.09464 
781 1 0.0548194 -0.019998 0.0304728 0.0658307 
461 1 -0.00794551 -0.010904 -0.0301167 0.0330007 
3704 2 -0.00904616 -0.051845 0.0243266 0.0579786 
629 1 -0.0525272 0.0326892 0.0330824 0.0701579 
1571 1 0.00405206 0.00727404 -0.0271375 0.0283862 
58 1 0.0997295 0.0210091 0.133387 0.167867 
2372 1 -0.0514804 -0.0447399 -0.0160054 0.0700576 
372 1 -0.00874793 -0.00365806 -0.0198517 0.0219999 
3504 2 -0.00124646 -0.0701996 0.0307242 0.0766389 
4130 2 -0.00698 -0.0210749 -0.0478276 0.0527291 
1262 1 0.0354564 0.083649 -0.0714481 0.115582 
907 1 -0.0718487 -0.0521647 -0.120611 0.149768 
3659 2 0.0306325 0.148547 -0.0792898 0.171148 
1298 1 0.0735618 0.042557 -0.0781603 0.115462 
1716 1 0.0081132 0.089623 -0.0483156 0.10214 
1182 1 0.00796954 0.00907007 0.0105186 0.0160132 
683 1 -0.00419194 -0.0269605 0.0462816 0.0537255 
1958 1 0.0302898 -0.0672065 0.0543191 0.0915683 
1554 1 0.00832831 -0.0655001 -0.0495177 0.0825326 
1037 1 -0.0302555 -0.153644 0.0177326 0.157595 
749 1 -0.0912441 -0.0423242 0.041872 0.10895 
3628 2 0.0579683 0.0469585 0.0300262 0.0804177 
946 1 -0.0318216 0.00526754 -0.050506 0.0599268 
2232 1 0.0261517 -0.0076278 -0.0772267 0.0818906 
7 1 0.0298847 0.00760261 0.00644038 0.031502 
501 1 0.0203075 0.0928687 -0.0787399 0.123438 
179 1 -0.0210742 -0.0232959 -0.0959462 0.100958 
714 1 -0.0382221 -0.0382207 0.10908 0.121738 
4166 2 0.00910961 -0.0473372 -0.0358133 0.0600532 
276 1 -0.0272816 0.0399773 0.0785711 0.0922816 
767 1 -0.0605892 -0.0173626 0.0586063 0.0860651 
3890 2 -0.134848 -0.0354495 -0.0859225 0.163778 
6 1 -0.00145201 0.0865773 -0.00711885 0.0868816 
2086 1 -0.0153047 -0.00101478 0.0428932 0.0455531 
224 1 0.00844709 -0.0211611 0.000781601 0.0227982 
3660 2 0.0382253 0.0366394 0.023163 0.057794 
596 1 -0.0618529 -0.0106475 -0.0210761 0.0662069 
1214 1 -0.00205015 -0.0490521 -0.0416348 0.0643721 
3686 2 0.0379544 0.0266485 0.0110426 0.047672 
427 1 -0.0529747 0.0712853 0.0691263 0.112545 
350 1 0.00772341 0.0512556 0.0125619 0.0533347 
85 1 -0.0296252 -0.00864177 -0.00264468 0.030973 
598 1 -0.0359718 -0.0193357 0.101117 0.109052 
3554 2 0.00618371 -0.0219431 -0.0269847 0.0353258 
29 1 -0.0257746 0.0571287 0.0384542 0.0735306 
464 1 -0.0313461 0.027548 -0.0367086 0.0555787 
3619 2 -0.0276939 0.0327511 0.0679594 0.0803621 
12 1 0.0473691 -0.158153 0.0404112 0.169969 
364 1 -0.0895663 0.0291529 -0.058221 0.110733 
1849 1 -0.0881077 -0.0566863 0.0158773 0.105964 
3663 2 -0.110266 0.0423457 -0.0641106 0.134395 
3517 2 0.0331904 0.0119939 0.0725375 0.0806669 
25 1 0.111295 -0.0292718 -0.0264633 0.118083 
4163 2 -0.00864045 0.0206176 -0.0174157 0.0283381 
399 1 0.00426197 0.0110093 -0.0169297 0.0206394 
4265 2 -0.0344921 0.0558939 0.019625 0.0685491 
527 1 0.00247635 -0.0170651 -0.0290054 0.0337441 
200 1 0.073528 0.0262081 0.0386199 0.0870903 
1951 1 0.096557 0.0715694 0.0343945 0.125014 
644 1 0.0336928 -0.0401094 0.0542653 0.0754234 
193 1 0.00820866 0.0780923 -0.0161607 0.0801683 
550 1 -0.000385949 -0.0307515 -0.0198571 0.0366075 
69 1 0.00114973 -0.0304153 0.0196592 0.0362339 
842 1 -0.0620604 0.0345366 -0.0781699 0.105616 
578 1 -0.0409229 0.025113 -0.000632151 0.0480182 
172 1 -0.000351632 -0.0756765 0.0213026 0.0786185 
381 1 -0.00756729 0.0576914 -0.0767364 0.0963018 
3524 2 0.0557236 -0.0847895 0.104081 0.145352 
688 1 -0.0558485 0.0743835 -0.00873363 0.093425 
3651 2 -0.0201501 0.0485886 0.0114769 0.0538387 
2367 1 0.0365085 0.0249188 -0.00420064 0.0444011 
1244 1 -0.0576485 0.0292449 0.0336334 0.0728686 
796 1 -0.092307 0.0766476 -0.0267808 0.122933 
691 1 0.0515184 -0.0114216 0.0155708 0.0550186 
421 1 0.0183549 0.0233699 0.098985 0.103349 
597 1 -0.0488738 0.0547097 -0.0181207 0.0755656 
3617 2 0.00970336 0.0151805 -0.0509425 0.0540346 
120 1 0.0578445 0.0473973 0.0261598 0.0792264 
769 1 -0.0386032 0.015223 0.0469905 0.0626901 
2142 1 -0.00511432 0.0180876 -0.0169593 0.0253167 
3611 2 0.108416 0.0542793 0.098575 0.156261 
1915 1 -0.0257812 0.0356961 0.00700947 0.0445871 
2140 1 -0.0203126 0.00446961 0.0828614 0.0854317 
3828 2 0.0895955 0.0188992 0.0330497 0.097349 
3204 1 0.00616745 0.0719516 0.028387 0.0775944 
175 1 0.0716959 0.0492096 -0.0347921 0.0936609 
2011 1 0.0671799 0.0246846 -0.0362419 0.0802243 
75 1 -0.0104044 0.0644971 0.0164673 0.0673743 
547 1 -0.0408571 -0.00122582 -0.047618 0.0627557 
4316 2 -0.033833 0.0244864 -0.0118921 0.0434244 
559 1 0.0288269 0.035892 -0.0307275 0.055348 
717 1 0.0145651 0.0475897 -0.0316623 0.0589866 
242 1 0.00930847 -0.0215883 0.0530238 0.058002 
3510 2 -0.0437913 0.0219355 0.0487129 0.0690782 
130 1 0.0557667 -0.039454 0.0903479 0.113266 
143 1 -0.0146408 0.0344028 -0.0504393 0.0627856 
202 1 -0.104783 -0.0315317 -0.0504251 0.120484 
182 1 -0.10083 0.0435701 -0.00882208 0.110194 
84 1 0.0309192 -0.0533719 -0.0518627 0.0805872 
3633 2 0.016742 -0.0585967 0.0508982 0.0794009 
35 1 -0.109695 -0.0389261 0.0893101 0.146712 
3612 2 0.0198592 0.0405382 -0.0809447 0.092681 
40 1 0.110593 0.0712271 0.0548891 0.142538 
4005 2 0.0459429 -0.066891 0.0189288 0.0833274 
718 1 -0.0205608 0.0254961 -0.0395913 0.0513836 
134 1 -0.0102453 -0.0352523 0.0546027 0.0657962 
511 1 -0.0337337 -0.0725881 0.0622376 0.101393 
757 1 0.05421 0.120394 -0.00213519 0.132053 
3555 2 -0.0563984 0.0283817 0.0214793 0.0666907 
3481 2 -0.0265344 0.0130611 -0.0314064 0.0431397 
135 1 0.0129887 -0.0472709 -0.0062006 0.0494135 
369 1 0.0277855 -0.0294617 0.0987316 0.106714 
2148 1 -0.0602476 -0.03412 -0.0133362 0.070511 
3462 2 0.0379838 -0.0642329 -0.119204 0.140635 
1914 1 -0.0166428 0.017699 0.00699842 0.0252827 
3661 2 0.0572748 -0.0786292 0.0189207 0.0991007 
1871 1 0.0189839 0.0205589 -0.0293408 0.0405455 
320 1 -0.0342848 -0.019739 -0.0347921 0.0526836 
582 1 -0.00632394 -0.0872025 -0.00336225 0.0874961 
766 1 -0.0311317 0.0131388 -0.00128641 0.0338152 
3552 2 -0.00830766 -0.0473175 0.0147349 0.0502502 
2290 1 -0.0369456 0.0379886 0.0404299 0.0666535 
1794 1 0.0140507 0.00115014 0.0368058 0.0394134 
753 1 -0.0716405 0.03207 0.01421 0.0797669 
396 1 -0.00795302 -0.0234359 0.0848138 0.0883509 
496 1 -0.00544333 0.0384232 -0.0688802 0.0790598 
480 1 -0.0354533 -0.0473092 0.0603816 0.0845046 
253 1 0.0442312 0.00159883 -0.00208558 0.0443092 
4033 2 -0.00510847 0.0195968 -0.0346432 0.0401284 
347 1 -0.0550292 0.0176707 0.0361653 0.0681791 
586 1 -0.060746 0.0329225 -0.0942277 0.116845 
3671 2 0.0900965 0.00800801 -0.083434 0.123056 
37 1 -0.0107704 -0.0590397 0.0122673 0.061255 
782 1 0.0251282 -0.0776572 -0.00879203 0.0820937 
481 1 0.0448846 -0.00330918 -0.0594811 0.0745894 
392 1 -0.0487979 0.0352463 -0.0863262 0.105241 
333 1 0.0341605 -0.0427995 -0.0199267 0.0582736 
342 1 -0.00103567 0.00419712 -0.0332316 0.0335116 
1179 1 -0.0101102 0.00688922 -0.0483342 0.0498586 
517 1 -0.0118743 -0.0496684 -0.029621 0.0590369 
1824 1 0.0547348 -0.0357763 0.101393 0.12065 
34 1 0.0169723 0.0196215 0.0336199 0.042466 
398 1 0.00583149 -0.0224621 -0.0423997 0.0483352 
170 1 -0.0586385 -0.0485964 -0.0406999 0.0863514 
235 1 0.0166486 -0.110131 0.0332393 0.116236 
3852 2 -0.0164344 -0.0422932 -0.00901918 0.0462618 
816 1 0.0355882 -0.00397163 -0.0194242 0.0407381 
3931 2 -0.0818094 -0.087128 0.100754 0.156318 
274 1 -0.0291897 -0.038621 -0.0140904 0.0504199 
30 1 0.0227662 -0.000185141 -0.023193 0.0325 
2066 1 0.0637905 -0.0430204 0.0900392 0.118436 
1082 1 0.0172346 -0.0229669 0.0408315 0.0499171 
1372 1 0.00496607 -0.0309503 0.0763608 0.0825443 
1265 1 0.0653661 -0.0188157 -0.0741563 0.100628 
601 1 0.0302437 0.0498759 0.0422563 0.072027 
540 1 0.017512 0.0272177 0.0275447 0.0424992 
589 1 -0.0334534 0.107092 0.0530281 0.124096 
958 1 0.0640774 0.00373697 -0.0279337 0.0700013 
504 1 -0.0716103 0.0320985 -0.0101261 0.0791258 
1349 1 -0.0269695 0.0411489 -0.028786 0.0570019 
9 1 0.00355387 -0.0869792 0.0321038 0.0927829 
149 1 0.0100572 0.0594722 0.0083019 0.0608852 
163 1 0.0274119 -0.0501604 -0.00686871 0.0575731 
4247 2 0.0111535 -0.0384994 -0.0518749 0.0655562 
1584 1 0.126207 -0.013171 -0.0963629 0.159335 
3570 2 -0.0257964 -0.0581113 0.00539054 0.0638079 
237 1 0.017522 0.0394389 0.012687 0.0449823 
490 1 -0.0189175 -0.0476517 0.00494126 0.051507 
50 1 -0.0431302 -0.0708978 0.0331648 0.0893679 
152 1 0.0292785 0.0128197 -0.00745758 0.0328206 
3652 2 -0.00134114 -0.0178924 0.00101076 0.017971 
3823 2 0.00511572 0.0675986 -0.0782771 0.103552 
902 1 0.0282201 0.0565795 -0.0199379 0.0662958 
3574 2 -0.0269915 0.0455405 -0.0524119 0.0744948 
770 1 -0.00834966 -0.0550511 -0.0202786 0.0592585 
154 1 0.00139108 -0.0161414 -0.0207797 0.0263492 
116 1 0.0747472 -0.0537558 0.0250178 0.0954081 
710 1 -0.0695494 -0.114427 -0.0415402 0.140201 
1956 1 -0.00810931 0.045145 -0.0641716 0.0788785 
1810 1 -0.099647 -0.0334702 0.0788034 0.131376 
2072 1 -0.0330106 -0.0241301 -0.0185649 0.0449068 
1649 1 -0.0170854 0.00358811 -0.0349285 0.0390485 
186 1 -0.0353475 -0.0171875 0.0743477 0.0840977 
1063 1 -0.0280239 0.0449038 -0.139232 0.148954 
432 1 -0.0775749 0.0685767 -0.0867645 0.135088 
2495 1 -0.0783721 -0.0927671 0.0676414 0.139008 
3896 2 0.00418384 -0.0105642 -0.0396297 0.0412264 
1071 1 -0.0185055 -0.0348155 -0.0450199 0.0598445 
913 1 0.0525547 -0.0667469 0.0334602 0.0913057 
1068 1 0.0444091 0.0227367 -0.00128278 0.0499076 
265 1 -0.0559171 0.0197637 -0.0226658 0.0634906 
1287 1 0.0146853 0.096261 0.00241813 0.0974048 
3799 2 0.0325849 -0.0397351 -0.0797042 0.0948336 
554 1 0.0330564 -0.0362812 -0.0670467 0.0830921 
1414 1 -0.0244052 0.0368646 -0.0707279 0.083409 
213 1 0.000893034 -0.0321402 0.00532436 0.0325904 
341 1 -0.0549915 -0.0326614 -0.0331981 0.0720621 
3682 2 -0.0401428 0.01328 -0.0437888 0.0608709 
754 1 -0.0478361 0.0902294 -0.00410826 0.102208 
112 1 -0.0577648 0.0404799 0.00541049 0.0707437 
1041 1 -0.0217472 -0.0761385 0.0216291 0.0820843 
119 1 0.00336429 -0.0103991 0.0747642 0.0755589 
415 1 0.0107589 0.0471122 -0.0367208 0.0606938 
995 1 -0.042524 0.0352887 0.0203879 0.0589003 
4128 2 -0.0283577 -0.0385443 0.104405 0.114848 
8 1 0.0591441 0.0555148 -0.0036502 0.0811988 
94 1 0.00500723 -0.0606852 0.00386767 0.0610141 
48 1 0.0170039 0.0218082 0.00660605 0.0284318 
3998 2 0.0184216 0.0386791 0.0407795 0.0591472 
3866 2 0.0407993 0.0253806 -0.0113282 0.0493669 
2206 1 0.0199151 -0.00854936 -0.0166667 0.0273401 
3490 2 -0.0713575 -0.00571511 -0.0124477 0.0726602 
3072 1 0.00282504 -0.042701 0.0551145 0.0697779 
3002 1 0.0754341 0.0362276 0.0317881 0.0895166 
92 1 0.0178247 0.0899708 0.0837142 0.124179 
335 1 -0.0434912 0.0662724 -0.0481441 0.0927435 
4034 2 -0.124952 -0.112659 0.037926 0.172463 
1186 1 0.0192891 0.00629402 0.00806449 0.0218339 
1114 1 0.0736038 0.0364825 0.0275417 0.0866431 
1821 1 -0.0235271 -0.049419 -0.0536665 0.0766541 
1922 1 0.00574625 -0.0767284 0.0131308 0.0780557 
451 1 -0.0745652 -0.0473715 -0.00398184 0.0884301 
3960 2 0.00399872 -0.0282244 0.0154429 0.0324205 
100 1 -0.0243393 0.0438134 -0.0561791 0.0752869 
1180 1 -0.00676805 -0.0449614 -0.0614138 0.0764133 
165 1 0.0661265 -0.0153461 -0.00658887 0.0682028 
388 1 -0.0627463 -0.0564663 -0.0316423 0.0901486 
3742 2 0.0726598 -0.0370987 0.0320795 0.0876633 
323 1 -0.0824613 0.100274 -0.0731829 0.149032 
288 1 -0.0438839 0.0109366 0.0115846 0.0466863 
3942 2 -0.0463071 0.0453164 0.0816462 0.104231 
66 1 0.0471267 0.0355147 0.0461555 0.074917 
340 1 -0.0154218 -0.0230249 -0.00343049 0.0279239 
138 1 -0.0254805 0.0110545 0.0166697 0.0323934 
879 1 0.0111672 -0.000196558 -0.0598386 0.060872 
3808 2 0.0524038 0.00244411 -0.000963596 0.0524696 
834 1 -0.0211804 0.0155827 0.0204656 0.0333207 
18 1 -0.052165 -0.0517027 -0.0853141 0.112574 
3679 2 0.0158515 -0.0231435 -0.0107635 0.0300457 
52 1 0.0436423 -0.00984517 -0.0118308 0.0462769 
407 1 -0.0445465 -0.00874784 -0.0693311 0.0828717 
360 1 0.0479881 -0.0306467 -0.102825 0.117538 
2885 1 -0.0816396 -0.0599685 -0.0272894 0.104909 
3526 2 -0.00548675 -0.138942 -0.0386517 0.144322 
310 1 -0.0645693 -0.0248479 0.0103898 0.0699612 
326 1 0.0703588 -0.0100639 0.0430382 0.0830899 
227 1 -0.0121809 -0.0192389 -0.0145888 0.0270434 
2068 1 -0.073272 -0.0539506 -0.096386 0.132551 
456 1 0.0154972 -0.00319935 0.0261621 0.0305754 
279 1 -0.025855 0.0177278 0.06668 0.0736816 
305 1 -0.0698785 0.0146119 -0.0256768 0.075867 
49 1 0.00666931 0.0609278 0.0415106 0.0740257 
3512 2 -0.000123554 -0.0738609 0.042251 0.0850917 
11 1 -0.0427079 -0.114738 0.00766031 0.122668 
189 1 -0.0239158 0.0686148 0.0620401 0.0955455 
2271 1 -0.0719302 -0.0266672 -0.0185814 0.0789326 
319 1 -0.0717712 -0.0405618 -0.00980366 0.0830209 
3566 2 -0.00928908 0.0509214 -0.0413868 0.0662732 
71 1 -0.0129424 0.0158807 0.00884312 0.0223137 
1560 1 -0.0217894 -0.0380185 0.045489 0.063162 
190 1 0.000168351 -0.0340114 0.0429623 0.0547957 
123 1 0.0564377 0.0162116 0.0496359 0.0768879 
27 1 -0.0371724 0.00230883 -0.029723 0.0476506 
162 1 -0.0155973 -0.00647218 -0.0847204 0.086387 
255 1 -0.073315 0.0137661 -0.0350639 0.0824261 
304 1 -0.0764069 0.00359045 -0.0383562 0.0855693 
321 1 0.000926088 -0.0681777 0.121364 0.139205 
682 1 -0.0368863 0.0370025 0.00236941 0.0523011 
3469 2 0.0689659 0.0610637 -0.0783399 0.120922 
3539 2 0.0306084 0.0414533 0.0638278 0.082032 
128 1 0.0582375 -0.0313485 -0.0366816 0.0756299 
3562 2 0.0910747 0.0294041 0.0519455 0.108892 
560 1 -0.0896987 -0.0476044 0.0113635 0.102182 
212 1 -0.0125827 0.0333201 -0.00435661 0.0358822 
355 1 0.0150839 0.0578517 0.101052 0.117413 
156 1 0.0654695 0.0451545 0.0602096 0.0997516 
3620 2 -0.00919149 -0.0356151 -0.00284472 0.0368919 
1823 1 0.128539 -0.10075 -0.0766397 0.180407 
1805 1 -0.00935564 0.0700344 0.0790049 0.105991 
2599 1 -0.0279273 0.012547 0.00252453 0.0307203 
327 1 0.0106276 0.0106805 -0.00124821 0.0151187 
137 1 0.0516746 -0.00741959 0.0631603 0.0819423 
2334 1 -0.0103916 0.0420312 0.0295013 0.0523921 
3698 2 0.0335382 -0.0679556 0.0181848 0.0779324 
555 1 0.00374159 -0.0383937 -0.0411828 0.0564278 
4178 2 0.032424 -0.042154 0.0345549 0.0634217 
290 1 -0.00749519 0.0561808 -0.018581 0.0596466 
284 1 -0.022657 0.00108159 -0.0527696 0.0574381 
3543 2 0.0208426 -0.00731998 0.0323175 0.0391461 
366 1 0.0269928 -0.0424105 0.0235949 0.0555336 
55 1 -0.027123 0.0297311 -0.00832248 0.0410957 
273 1 -0.0150912 -0.0650147 -0.00186783 0.0667694 
3468 2 0.0481036 0.0218024 0.0265952 0.0591321 
316 1 0.0723927 -0.0356308 0.0979929 0.126936 
81 1 -0.060426 0.0242047 0.0275691 0.0706911 
322 1 0.0293852 -0.0118708 -0.0033464 0.0318685 
239 1 -0.0258193 0.0215386 -0.0500943 0.0603323 
734 1 -0.0503285 -0.0762877 -0.0339284 0.097488 
384 1 0.0844584 -0.0382919 -0.0448807 0.103023 
3476 2 -0.00910184 0.080829 0.00617296 0.0815738 
311 1 0.0074501 -0.0350903 -0.0659597 0.0750834 
3471 2 -0.0114188 0.0192689 0.0136097 0.0262088 
1938 1 0.0139834 -0.052698 -0.011482 0.0557176 
139 1 0.106343 -0.0403399 -0.0110284 0.11427 
727 1 0.0447518 -0.0254137 0.0562748 0.076259 
1885 1 0.00322845 0.0364004 -0.0667342 0.0760846 
2184 1 0.0763021 0.156244 -0.0951844 0.198227 
2494 1 -0.11617 -0.0632703 -0.114177 0.174743 
2091 1 -0.0381991 -0.0145947 -0.0451221 0.0608948 
281 1 0.0426737 0.0773818 0.0881471 0.124816 
863 1 0.0151549 0.0874783 -0.00580228 0.0889707 
176 1 -0.0760308 0.0587225 -0.0364465 0.102749 
3710 2 -0.00617249 0.0568138 -0.0322919 0.0656405 
3572 2 0.00431748 -0.0720559 -0.0388611 0.081981 
4197 2 -0.0666749 0.0348223 -0.0200275 0.0778411 
343 1 -0.00753961 -0.0345349 -0.0918008 0.0983712 
282 1 -0.0124311 -0.032649 -0.00259412 0.0350317 
1038 1 -0.0180222 0.0517968 0.00844739 0.0554894 
408 1 0.135312 0.0784026 -0.0267697 0.15866 
412 1 0.117701 -0.0496459 -0.0103133 0.128158 
820 1 0.0823273 0.00332141 0.0210493 0.0850405 
585 1 -0.0502899 -0.0392119 -0.054607 0.0839558 
3609 2 0.0370496 -0.053757 0.00347995 0.0653804 
719 1 -0.0201121 0.0606135 -0.0201029 0.0669524 
608 1 0.00341211 -0.00855733 -0.00639179 0.0112127 
106 1 -0.0188438 0.0544234 0.0374781 0.068714 
1047 1 -0.0955656 -0.0241466 -0.0125981 0.0993708 
3573 2 0.00390504 0.0222733 -0.0503882 0.0552297 
751 1 -0.0227497 -0.0164179 -0.0401751 0.0490014 
259 1 0.052643 -0.0553949 0.0159695 0.0780699 
245 1 -0.0702036 -0.0137015 -0.0502301 0.0874033 
613 1 -0.0361939 -0.00569778 0.120685 0.126125 
4296 2 -0.0300381 0.0359735 0.0216307 0.0516165 
272 1 -0.0854512 -0.0815515 -0.00920063 0.118479 
4239 2 -0.0174731 -0.095668 -0.0465685 0.107825 
88 1 0.0552668 0.0807117 0.0606842 0.115115 
4 1 0.104129 -0.0105304 -0.0556095 0.118516 
361 1 0.0544497 0.0868341 -0.113866 0.1532 
358 1 -0.0275942 -0.0309009 -0.0306561 0.0515374 
194 1 -0.00379174 0.0291137 -0.064164 0.0705621 
2373 1 0.00244729 -0.0207212 -0.0684014 0.071513 
1982 1 0.00363033 -0.0207503 -0.00710483 0.0222314 
3953 2 -0.00755057 0.0148846 0.0411664 0.0444211 
414 1 0.0135684 0.0126963 -0.0345389 0.0392204 
3186 1 0.0636591 -0.0726023 0.0247294 0.0996751 
177 1 0.0535486 -0.0187756 0.073738 0.0930444 
1962 1 -0.0373113 0.0416297 0.0530229 0.0770493 
706 1 0.032984 -0.00842135 -0.0250587 0.0422706 
1544 1 -0.0217999 -0.0461707 0.009502 0.0519351 
4160 2 -0.0233994 0.00125632 -0.0105338 0.0256919 
19 1 -0.0285129 -0.0355622 -0.0740519 0.0869559 
3624 2 0.00679294 -0.0157562 -0.0466319 0.0496883 
115 1 0.106328 -0.0681536 -0.00975766 0.126672 
1102 1 -0.072293 -0.0011785 -0.0100733 0.0730009 
1492 1 0.0259738 0.0383211 0.033713 0.0572687 
649 1 0.0501374 0.109201 -0.0483669 0.12953 
113 1 0.035642 0.000515739 -0.00874313 0.0367023 
1150 1 0.0329244 -0.0142881 0.0444065 0.0570973 
620 1 -0.06516 0.0198399 0.00982117 0.0688179 
739 1 -0.0759776 -0.0175427 0.0291781 0.0832568 
2412 1 0.00942902 0.058388 -0.000494584 0.0591465 
3746 2 0.0672152 0.0223084 -0.121567 0.140691 
1225 1 0.0219485 0.059675 0.0682708 0.0932939 
241 1 0.0679897 0.0396974 -0.00876889 0.0792172 
83 1 0.0314784 0.0344201 -0.022312 0.0517055 
1006 1 0.0207798 0.00546237 -0.0059223 0.022287 
4046 2 -0.0694583 -0.0508947 -0.0404431 0.0951335 
96 1 0.0300585 -0.0813152 -0.00852135 0.0871108 
411 1 0.0462307 0.0522376 0.0628071 0.0938657 
2454 1 -0.0369395 0.0051052 -0.024874 0.0448253 
404 1 -0.0540313 0.0429032 0.0596532 0.0912061 
226 1 0.0567264 -0.0193195 0.0703124 0.0923848 
534 1 0.034306 -0.0112805 0.0941234 0.100814 
3538 2 0.0152603 0.0343281 -0.00738056 0.0382853 
761 1 0.0587245 -0.00471775 0.0220275 0.062897 
246 1 0.0852198 -0.0702159 0.0314283 0.114806 
2229 1 0.0166035 -0.0699502 0.0237537 0.0757163 
146 1 -0.00520224 0.0180477 -0.0422738 0.0462586 
3608 2 0.0620851 -0.0227879 -0.00442811 0.0662831 
503 1 -0.0364392 -0.00387795 0.0410476 0.0550251 
505 1 0.0742104 -0.0250293 -0.00607239 0.0785527 
1430 1 -0.076 -0.0300203 -0.00488394 0.08186 
97 1 -0.00922911 0.0340541 -0.0478466 0.0594487 
1723 1 0.0302691 -0.00932164 -0.0738732 0.0803764 
3561 2 0.027379 0.0879325 -0.0165152 0.0935654 
20 1 -0.0521109 -0.0745972 -0.0214444 0.0934888 
263 1 -0.0569714 0.0963039 0.016492 0.113102 
817 1 0.0724838 -0.0473986 0.00668969 0.0868635 
1034 1 0.0198494 0.0147301 0.0151551 0.028994 
353 1 0.0358515 -0.00495833 0.0733191 0.0817655 
1260 1 0.0484716 0.0752628 -0.0177701 0.0912675 
998 1 0.015815 0.0373863 -0.040974 0.0576777 
1932 1 0.0649755 -0.101132 -0.00991239 0.120614 
36 1 0.0681582 -0.0824092 0.0287629 0.110743 
38 1 -0.0309152 -0.0193022 -0.0702597 0.0791501 
3130 1 0.000937232 0.0273892 -0.0368051 0.0458875 
1973 1 0.0680207 -0.0491028 0.11553 0.142777 
307 1 -0.027621 -0.056634 -0.0810185 0.102637 
2714 1 0.0863811 0.0375668 0.0152303 0.0954197 
28 1 0.0220276 0.00424615 -0.000327453 0.0224356 
1937 1 -0.00270835 0.00925736 -0.0349596 0.0362658 
562 1 -0.0623099 -0.0858521 0.00199677 0.106099 
3011 1 -0.0625604 -0.0177614 0.0148166 0.0666994 
410 1 0.0793493 -0.021658 0.0243965 0.0857938 
693 1 0.0550509 0.0983599 0.0393369 0.119385 
367 1 -0.0290351 0.00381113 -0.00714652 0.0301436 
318 1 0.0900807 0.0270027 -0.0237738 0.0969993 
735 1 0.0696272 -0.0375463 0.0208824 0.0818154 
600 1 -0.0285328 0.0648196 0.0401834 0.0814273 
3590 2 -0.0649457 0.0367558 -0.0661621 0.0997315 
3636 2 0.0385968 -0.0985736 0.038155 0.112527 
26 1 -0.0566038 0.0600077 0.0465318 0.0947107 
1199 1 0.043455 -0.00580412 -0.0444906 0.0624615 
614 1 -0.0309205 -0.0356747 -0.00744331 0.047793 
459 1 0.0547274 -0.0513461 -0.0470704 0.0885841 
3645 2 0.0593272 0.0844453 0.0358608 0.109255 
574 1 0.0261553 0.053027 -0.021549 0.0629311 
780 1 0.0757677 -0.0113108 -0.00939444 0.0771811 
161 1 -0.030796 0.048892 -0.0403232 0.0704611 
309 1 0.100831 0.043609 0.0214308 0.111928 
365 1 -0.00190115 -0.0958507 -0.00924344 0.0963142 
191 1 -0.0463237 0.0627147 0.0117223 0.0788444 
1766 1 0.0129551 0.0842553 -0.0458411 0.0967895 
2775 1 -0.00812553 -0.0793107 -0.0468664 0.0924806 
1030 1 0.0189289 -0.0278718 0.0459039 0.0569413 
1505 1 0.0739076 0.10086 0.086758 0.152191 
3872 2 0.00673541 0.0376697 -0.003825 0.0384578 
580 1 -0.0355821 -0.0450789 -0.0228101 0.061794 
2054 1 -0.11174 -0.0521622 -0.0519835 0.133825 
2064 1 0.0542251 0.00412606 -0.0494423 0.0734978 
529 1 0.00328503 0.0418517 -0.0644771 0.0769393 
402 1 -0.00557175 0.0443134 -0.0117989 0.0461945 
124 1 0.0134419 -0.0612445 0.0173034 0.065046 
744 1 0.0586377 0.0252216 0.000984255 0.0638395 
185 1 0.0772747 -0.0423806 0.0969004 0.130985 
315 1 -0.022105 -0.0460488 -0.0452235 0.0682224 
655 1 -0.044113 0.000754144 0.0807739 0.0920377 
765 1 -0.0206547 0.0790125 0.0251254 0.0854451 
140 1 0.0288629 0.0542465 -0.0186433 0.0642131 
59 1 -0.0372674 -0.0250206 0.0251593 0.0514576 
54 1 0.0091818 0.00863941 0.03907 0.0410537 
3506 2 0.0133542 0.0458546 -0.0357438 0.059654 
666 1 -0.051194 -0.0828953 0.0656702 0.117495 
43 1 0.0368483 0.110936 0.0531444 0.128409 
334 1 0.0105058 0.0278817 -0.00125975 0.0298219 
267 1 0.089564 0.0486207 0.0126183 0.102688 
99 1 0.0531425 0.0293022 0.0811691 0.101347 
1189 1 -0.0696157 -0.049057 -0.100519 0.131746 
201 1 0.0132531 -0.0604586 -0.0490289 0.0789603 
380 1 0.0331 0.0819359 -0.110668 0.141621 
1777 1 0.021505 -0.0147678 -0.0375415 0.0457156 
2597 1 0.184229 -0.018348 -0.0563189 0.193516 
2484 1 0.105137 -0.0439376 -0.0842694 0.141724 
308 1 -0.0503943 -0.0259006 -0.0237636 0.0614421 
3918 2 -0.0298893 0.0467941 0.00856326 0.0561817 
89 1 -0.0539586 0.0243301 -0.0335329 0.068029 
300 1 -0.00710477 0.0258779 -0.00562705 0.0274191 
3582 2 0.0153166 0.0638612 0.0119778 0.0667557 
712 1 -0.0674387 0.0337336 0.0623551 0.0978473 
3836 2 -0.00733498 0.0244346 -0.0516248 0.0575845 
268 1 0.0257867 0.00258173 -0.0171992 0.0311036 
788 1 0.0124371 0.0270854 -0.0900182 0.0948239 
4091 2 -0.00673168 0.0978825 0.025137 0.101283 
371 1 0.0464959 0.0320911 0.0401939 0.0693343 
3505 2 0.00954119 -0.0171141 0.0844436 0.0866871 
266 1 0.0195702 -0.0372253 -0.024713 0.0487796 
3571 2 -0.0649418 0.0527158 0.0250874 0.0873257 
637 1 -0.0102876 0.00114289 -0.0416187 0.0428866 
157 1 0.0327362 -0.000453343 0.0137576 0.0355125 
257 1 0.0219702 0.0397262 0.0343377 0.0569204 
571 1 -0.0465265 0.00769962 -0.0479469 0.0672525 
665 1 -0.0866629 0.0274283 0.109882 0.142607 
448 1 -0.070837 -0.0309714 0.0174597 0.0792587 
827 1 0.096734 0.0819816 -0.0124748 0.127413 
3475 2 -0.00959955 -0.0193261 0.0267609 0.0343773 
73 1 -0.0165358 0.0892859 -0.00930884 0.0912801 
373 1 0.047244 -0.0446969 0.0539205 0.0844821 
247 1 0.00321105 -0.0161232 -0.0263449 0.0310536 
107 1 0.0432524 0.0107816 0.0286927 0.0530121 
675 1 -0.0114424 0.0479572 -0.091709 0.104122 
434 1 -0.0165238 0.0494683 0.0310672 0.0607069 
159 1 -0.0360151 0.0112043 -0.0101206 0.0390519 
32 1 0.0304139 0.0557336 0.00385079 0.0636087 
3579 2 0.0233522 -0.0679498 -0.0227875 0.0753775 
394 1 -0.0285644 0.0100014 0.0376493 0.0483055 
260 1 -0.0494341 0.0125931 0.0114218 0.052276 
3972 2 -0.0322675 0.0173188 0.0927634 0.0997306 
1801 1 -0.0616813 0.0061794 0.0561187 0.0836187 
2122 1 -0.018302 0.0160925 0.0653992 0.0697925 
1966 1 0.0206138 -0.0130259 -0.0518491 0.0572969 
291 1 -0.0036319 0.0043728 0.0210123 0.0217676 
2047 1 0.0582582 0.00110403 0.0455441 0.0739561 
1899 1 -0.0215045 0.114565 0.0153874 0.117577 
622 1 -0.0597742 0.0171026 0.009478 0.0628911 
1993 1 -0.0206461 0.0065929 -0.0157503 0.0267918 
62 1 0.0384529 0.0585483 0.0228504 0.0736795 
2187 1 0.0134243 -0.00944996 -0.087263 0.0887939 
4318 2 0.0381485 -0.0436776 -0.00468327 0.0581805 
44 1 -0.0297706 -0.0504115 0.0470459 0.0751061 
824 1 -0.0166095 -0.0101992 0.0231743 0.0302811 
1282 1 -0.0290351 0.0153897 0.0830028 0.0892711 
3626 2 0.0396989 0.0398776 -0.0135079 0.0578679 
819 1 0.0324581 0.0134345 0.05415 0.0645464 
773 1 -0.0792288 -0.0667516 0.0205494 0.105618 
270 1 0.0415817 -0.0676301 0.0349819 0.0867559 
14 1 -0.0605179 0.035391 -0.0553596 0.0893288 
3540 2 0.0393358 -0.0380184 -0.0103496 0.055676 
997 1 0.0856443 -0.00792759 2.99617e-05 0.0860105 
4275 2 -0.0173792 -0.0605592 -0.062961 0.0890704 
164 1 0.045768 0.0489602 0.120087 0.137523 
234 1 -0.0491476 -0.0632744 0.0435805 0.0912052 
1125 1 -0.000967357 0.0674849 -0.0570373 0.0883651 
3985 2 -0.0708718 -0.00612185 0.0834823 0.10968 
328 1 0.0226183 0.0160441 -0.0388156 0.0477038 
3474 2 0.00705259 0.017392 -0.0139673 0.0233946 
543 1 -0.0586814 -0.0268667 -0.00937222 0.0652163 
293 1 0.0618551 -0.0350698 0.0212223 0.0742047 
3458 2 0.0475614 -0.0503557 0.0474248 0.0839458 
390 1 -0.0199637 -0.0479879 0.0161201 0.0544173 
3706 2 0.1009 -0.0696028 -0.0521343 0.133204 
2169 1 0.0618521 0.0453882 0.0143423 0.0780479 
1786 1 -0.0342843 0.0265265 -0.0680481 0.0806822 
1478 1 0.0207582 -0.0192835 0.100684 0.104594 
87 1 -0.00756902 -0.0293381 -0.012482 0.0327691 
4090 2 0.00104513 -0.0513311 0.046008 0.0689399 
142 1 -0.02138 0.0238321 0.0556279 0.0641836 
1650 1 -0.0657478 -0.0396922 -0.0641025 0.100037 
153 1 -0.00138629 0.0372887 0.0144096 0.0400001 
374 1 0.0497812 -0.017027 -0.00843237 0.0532841 
602 1 -0.0033696 -0.036682 -0.0174701 0.0407693 
1277 1 -0.0484208 0.0137429 0.0067419 0.0507828 
76 1 -0.041137 -0.0305632 0.0483336 0.070445 
1370 1 0.0439578 -0.0378107 0.0877636 0.105187 
221 1 0.00743272 0.0172704 -0.0537136 0.0569092 
604 1 -0.0013716 0.058415 0.0720145 0.0927377 
1161 1 -0.0613238 -0.00761698 0.033445 0.0702651 
1718 1 -0.103036 0.00690849 -0.0714324 0.125566 
178 1 0.0439182 -0.112003 -0.00176211 0.120319 
295 1 -0.0623642 -0.0412445 0.0197898 0.0773436 
1472 1 -0.0520476 -0.0565681 0.0362585 0.0849917 
4159 2 -0.0135629 -0.0430053 -0.0321039 0.055354 
3467 2 0.0881832 -0.00642616 0.0249077 0.0918584 
3531 2 0.0369828 -0.0255664 0.0996924 0.109362 
2720 1 -0.105466 0.0543911 -0.0340145 0.123445 
1851 1 0.0110878 0.0277272 -0.00026138 0.0298632 
732 1 -0.0521518 -0.0781792 0.00888146 0.0943963 
4009 2 0.0348674 0.0880826 -0.0183689 0.0964971 
3878 2 0.0136867 0.0160369 -0.0211873 0.02989 
3185 1 -0.0893234 -0.0371097 0.0147161 0.0978385 
110 1 -0.0559643 -0.0247913 0.0221329 0.0650882 
2963 1 -0.0227788 -0.00342405 -0.0213714 0.0314218 
2608 1 -0.0337782 0.0112399 -0.00505033 0.0359557 
3301 1 -0.00419603 -0.0110509 0.00603261 0.0132711 
3759 2 -0.0215104 0.0218442 -0.0143467 0.0338481 
4171 2 -0.00873566 0.0229949 -0.00197964 0.0246778 
2118 1 -0.00959192 0.0287027 -0.0564166 0.064021 
1742 1 0.0646837 -0.0842703 0.0188239 0.107888 
642 1 0.0350636 -0.110075 0.0729528 0.136631 
3366 1 -0.0523886 0.00893819 0.0685051 0.086703 
144 1 0.118655 0.0922875 0.0142473 0.150993 
681 1 0.0464332 -0.0455576 -0.0628497 0.0904523 
1666 1 0.0930599 -0.0370601 -0.0340755 0.105805 
183 1 -0.0874057 -0.049057 -0.0228658 0.102807 
694 1 -0.114771 0.0165849 0.0689285 0.134902 
444 1 -0.0158496 0.0642431 -0.0771787 0.101661 
869 1 -0.0146003 -0.0952967 0.0760491 0.122793 
920 1 -0.00230863 -0.0699458 -0.0420365 0.0816383 
53 1 0.0302283 0.00596892 0.0252089 0.0398104 
1450 1 -0.142182 -0.0562677 -0.0135402 0.153509 
1579 1 0.109151 -0.0626745 0.0616302 0.140144 
51 1 0.0687133 0.0243044 0.0346119 0.0806858 
4187 2 -0.0752591 -0.0461441 -0.165024 0.187153 
1694 1 0.000162405 -0.0829246 0.0541855 0.0990584 
1590 1 0.0155468 0.0320647 -0.0354181 0.0502423 
2005 1 -0.0276353 0.00304702 0.119864 0.123046 
736 1 -0.0336431 -0.0128208 -0.0641338 0.0735484 
363 1 0.0288811 -0.00199402 0.0391362 0.04868 
230 1 0.0210308 0.0276507 0.168478 0.172023 
2538 1 -0.00880844 0.0189701 -0.0699558 0.0730156 
357 1 -0.0813521 0.00348405 0.0215304 0.0842251 
3849 2 0.0977173 -0.0116804 0.0134068 0.099322 
4102 2 0.0680796 -0.0931815 0.0413683 0.122593 
1032 1 0.0637021 -0.0236155 0.00898576 0.0685302 
78 1 -0.00788778 0.0196478 -0.0203515 0.0293673 
564 1 0.0884981 0.00856367 0.10527 0.137793 
797 1 0.124502 -0.0400567 -0.0478908 0.13928 
1476 1 0.116522 -0.031931 -0.0241101 0.1232 
872 1 -0.069676 -0.0361714 -0.0460499 0.0910149 
475 1 -0.0369703 0.015286 0.0220558 0.0456829 
4119 2 0.0834536 -0.0622553 -0.0491853 0.11515 
576 1 -0.123124 0.0494124 0.0633865 0.147034 
507 1 0.0491354 -0.0199584 0.0253052 0.058762 
248 1 0.0804858 -0.0495171 -0.0104658 0.0950759 
3597 2 -0.04777 0.027861 0.0205154 0.0589838 
539 1 -0.00110212 0.0233444 0.0825377 0.0857826 
63 1 0.0646874 0.0159644 0.0234795 0.0706443 
57 1 -0.0936377 0.00427451 -0.00636675 0.0939512 
854 1 -0.000518808 0.0337164 0.0111287 0.0355093 
668 1 0.111927 -0.0636568 -0.109666 0.169135 
385 1 -0.0975878 -0.130653 0.00844978 0.163294 
752 1 0.0351557 -0.0128642 -0.00906264 0.0385168 
3650 2 0.0247413 0.0657766 0.0150245 0.071864 
3736 2 -0.0774629 -0.0902919 -0.0574357 0.132106 
254 1 -0.0541327 -0.0812917 -0.0253372 0.100899 
3637 2 -0.0131005 0.00508132 0.0743087 0.0756256 
731 1 0.0548505 0.0196086 -0.0599158 0.0835643 
2304 1 0.0951723 -0.0413199 -0.0638856 0.121846 
610 1 -0.0620476 -0.0283641 -0.0883191 0.111601 