ITEM: TIMESTEP
8
ITEM: NUMBER OF ATOMS
4320
ITEM: BOX BOUNDS pp pp pp
0.0000000000000000e+00 1.9309999999999999e+01
0.0000000000000000e+00 1.9309999999999999e+01
0.0000000000000000e+00 9.6549999999999994e+00
ITEM: ATOMS id type c_displacement[1] c_displacement[2] c_displacement[3] c_displacement[4] 
4012 2 -0.00376731 -0.00212183 -0.00487435 0.00651568 
2361 1 -0.0012607 0.0117769 -0.00874929 0.0147253 
79 1 -0.00699652 -0.0161261 0.0110702 0.0207738 
781 1 0.0219145 0.00873756 -0.00964047 0.0254859 
461 1 -0.00697088 -0.0185393 0.00337668 0.0200923 
3704 2 -0.00936226 -0.0102323 0.0150724 0.0204824 
629 1 -0.00902573 -0.00501274 0.0117945 0.0156749 
1571 1 0.0021023 0.00622414 -0.0125345 0.0141518 
58 1 0.0192436 -0.00255103 0.0412853 0.0456212 
1073 1 -0.00649108 -0.0085223 0.00476834 0.0117261 
372 1 0.00227279 0.010654 -0.00861992 0.0138916 
3504 2 0.00366311 -0.021909 0.00778756 0.0235387 
4130 2 -0.0116609 -0.00757898 -0.005211 0.0148517 
1262 1 0.00157686 0.0195982 -0.0174508 0.0262889 
907 1 -0.01627 -0.0106838 -0.0282053 0.0342695 
3659 2 0.0174458 0.0318424 -0.0199313 0.0414192 
1298 1 0.0177953 0.0187333 -0.0103017 0.0278161 
1716 1 -0.00166285 0.0305755 -0.00971257 0.0321241 
1182 1 -0.00780156 0.000962254 0.00902919 0.0119715 
683 1 -0.000716878 -0.00915512 0.0163336 0.0187381 
1958 1 0.0184019 -0.0263453 0.0151858 0.0355431 
1554 1 -0.00152857 -0.0154998 -0.00441304 0.0161881 
1037 1 -0.0137245 -0.0409554 0.00586171 0.0435897 
749 1 -0.0224581 0.00246472 0.009319 0.0244394 
3628 2 0.0179779 0.0140873 0.0111137 0.0254002 
946 1 -0.0109219 0.00762869 -0.00713997 0.015115 
2232 1 0.0173552 0.00772648 -0.013766 0.0234607 
7 1 -0.00152428 -0.0174653 -0.00721537 0.0189584 
501 1 0.00946984 0.0325224 -0.0224678 0.0406471 
179 1 -0.00287274 -0.0010605 -0.0204952 0.0207228 
714 1 0.011065 -0.00723012 0.0310114 0.0337107 
4166 2 0.00151309 -0.00972913 -0.0248902 0.026767 
276 1 -0.0101065 0.0098798 0.00380557 0.0146368 
767 1 -0.0143967 -0.00210095 0.022925 0.027152 
3890 2 -0.0267191 -0.00484595 -0.0122828 0.0298037 
6 1 -0.00891396 0.0125949 0.0105347 0.0186834 
2086 1 -0.00268288 -0.001957 0.0134034 0.0138087 
224 1 -0.00633419 -0.000859865 -0.000968857 0.0064653 
3660 2 0.0132034 0.0140771 0.000656191 0.0193113 
596 1 -0.0106064 -0.00206279 -0.0136331 0.0173957 
1214 1 -0.00691766 -0.00932373 0.00198888 0.0117789 
3686 2 0.0109649 0.00951444 -0.000300736 0.0145205 
427 1 -0.00544137 0.0133426 0.0103664 0.0177509 
350 1 0.000485699 0.0174556 0.00772451 0.0190946 
85 1 -0.00704245 -0.00216633 -0.00743189 0.0104653 
598 1 -0.0133779 -0.000242714 0.0215091 0.0253311 
3554 2 -0.000978419 -0.012542 -0.00269988 0.0128666 
29 1 -0.00251428 0.0179296 0.00981351 0.0205937 
464 1 -0.0180723 0.00749047 -0.000462163 0.0195686 
3619 2 0.000285302 0.00495955 0.0180797 0.0187498 
12 1 0.0299298 -0.0379754 0.0230574 0.0535684 
364 1 -0.0182049 0.0151863 -0.00140985 0.0237493 
1849 1 -0.019416 0.000282318 0.0213134 0.0288326 
3663 2 -0.0118398 0.00663016 -0.0288157 0.031851 
3517 2 0.0146297 0.00734643 0.00508619 0.0171426 
25 1 0.0146476 -0.0138987 0.00293252 0.020404 
4163 2 -0.0127311 0.00924955 -0.00353383 0.0161283 
399 1 -0.00293739 0.000522954 -0.00169863 0.00343324 
4265 2 0.00128668 0.0188321 -0.00226156 0.019011 
527 1 -0.0250964 0.0193208 -0.00665483 0.0323637 
200 1 0.00391815 -0.0120745 -0.00152823 0.012786 
1951 1 0.0102672 0.00399556 -0.00388249 0.0116814 
644 1 0.00841218 -0.00969046 0.0179793 0.022089 
193 1 -0.0107289 0.0212327 -0.00636394 0.024626 
550 1 -0.00258692 -0.00933322 0.00300615 0.0101409 
69 1 -0.0114529 -0.0222962 0.0180514 0.0308892 
842 1 0.00252316 0.0108758 -0.0292951 0.0313505 
578 1 -0.0264583 0.0180971 -0.0096365 0.0334725 
172 1 0.00294877 -0.0285577 0.00240536 0.0288102 
381 1 -0.0169788 0.0316085 -0.0125173 0.0380008 
3524 2 0.0231469 -0.0247517 0.00776248 0.0347661 
688 1 0.00514991 0.0119804 0.00790601 0.0152498 
3651 2 0.00494052 0.0163333 -0.000955298 0.0170909 
2367 1 -0.0101084 0.00139126 -0.00984945 0.0141819 
1244 1 -0.00488019 0.0197079 0.0252725 0.0324179 
796 1 -0.0269867 0.00996544 0.00376421 0.0290131 
691 1 0.0150684 0.000261669 0.0047819 0.0158111 
421 1 -0.00231621 -0.00175499 0.0294946 0.0296374 
597 1 -0.0182812 0.0147233 -0.00492663 0.0239843 
3617 2 -0.00101508 0.00458185 -0.0146182 0.0153531 
120 1 0.00219887 -0.00726055 -0.00518882 0.009191 
769 1 -0.0135901 0.0208231 0.00294301 0.0250391 
2142 1 0.00804938 0.00299588 0.00451648 0.00970394 
3611 2 0.0169553 0.0151752 0.0125614 0.0259915 
1915 1 -0.0135309 0.00965033 -0.00563526 0.0175491 
2140 1 -0.00693296 0.00428664 0.0133661 0.0156555 
3828 2 0.0218444 0.000929094 0.00700152 0.0229578 
2192 1 0.0134517 -0.00888967 0.0207945 0.0263132 
175 1 0.0103287 0.00765417 -0.012753 0.0181082 
2011 1 0.00472474 0.0109565 -0.000618149 0.0119479 
75 1 -0.0101171 0.00573305 0.0187552 0.0220676 
547 1 -0.0143498 0.0116698 -0.00176818 0.0185803 
4316 2 0.0162209 0.0110811 0.0102596 0.0221623 
559 1 -0.000993312 -0.00161023 -0.0127735 0.0129128 
717 1 0.0301357 -0.0152875 0.00502085 0.0341625 
242 1 0.00386969 -0.000388109 0.0113473 0.0119953 
3510 2 -0.0006625 0.00072914 -0.00441262 0.00452126 
130 1 -0.0111793 -0.0174553 0.00691604 0.0218517 
143 1 0.000346332 -0.00173684 -0.00392816 0.00430895 
202 1 -0.0177273 0.00212024 -0.0247037 0.0304799 
182 1 -0.0251097 0.018747 0.0017682 0.0313859 
84 1 0.00138561 -0.0237533 -0.0110667 0.0262414 
3633 2 -0.00274425 -0.016116 0.0112839 0.0198641 
35 1 -0.0306398 -0.0173011 0.00409013 0.0354239 
3612 2 0.00309309 0.0221944 -0.0264013 0.0346293 
40 1 0.0191447 0.0161217 0.0119863 0.0277507 
4005 2 0.014204 -0.0140485 0.00424607 0.0204241 
718 1 0.0103923 0.0251278 0.0045684 0.0275731 
134 1 0.00746707 -0.0203221 -0.0120318 0.0247691 
511 1 -0.00309444 -0.0197609 0.0288949 0.0351423 
757 1 0.0108338 0.0333136 -0.00365444 0.0352211 
3555 2 -0.0178915 -0.00681319 -0.000368679 0.0191484 
3481 2 0.00583165 0.0158087 0.0143016 0.0221011 
135 1 0.0039957 -0.0130648 0.00452049 0.0143906 
369 1 0.013021 -0.0100481 0.0175389 0.0240442 
2148 1 0.00420634 0.00652094 -0.0116946 0.0140349 
3462 2 0.0143781 -0.017086 -0.019046 0.0293498 
1914 1 -0.0178803 -0.0199659 -0.00704119 0.0277114 
3661 2 0.0125415 -0.00864431 0.00629327 0.0164809 
1871 1 0.00864155 0.00342539 -0.00247852 0.00962043 
320 1 -0.0122758 -0.010379 -0.00626655 0.0172537 
582 1 -0.0176185 -0.0130131 0.0097926 0.0239926 
766 1 -0.00850463 0.00251988 -0.00527922 0.0103222 
3552 2 -0.00259641 -0.00642249 0.00299288 0.00754633 
2290 1 -0.00865952 0.0178981 0.0183573 0.0270614 
1794 1 -0.000839908 -0.0118109 0.00358221 0.0123708 
753 1 -0.0204096 0.00642196 -0.00909725 0.0232498 
396 1 -0.00772223 -0.0133362 0.00503755 0.0162131 
496 1 0.000785493 0.0185866 -0.00623603 0.0196206 
480 1 -0.00538436 -0.0155945 0.0126808 0.0208082 
253 1 0.00975135 -0.0015778 -0.0098216 0.0139299 
4033 2 0.00438421 0.00863524 -0.00601902 0.0114025 
347 1 -0.0111377 -0.00357427 0.0166568 0.0203537 
586 1 0.00226705 0.00143692 -0.0225084 0.0226678 
3671 2 0.0278973 0.00274319 -0.0245861 0.0372862 
37 1 0.000514069 -0.00225477 0.00393947 0.00456812 
782 1 -0.000385283 -0.0019303 -0.00187872 0.00272104 
481 1 -7.96662e-05 -0.00715221 -0.0142106 0.0159092 
392 1 -0.00911995 -0.0003665 -0.0239586 0.0256383 
333 1 -0.00474097 -0.00687224 -0.0117902 0.0144469 
342 1 0.00793057 0.0109722 -0.0106845 0.0172465 
1179 1 -0.00581169 -0.00113619 -0.00399656 0.00714417 
517 1 -0.00905796 -0.00126227 -0.00983336 0.0134289 
1824 1 0.010669 -0.00853411 0.0284207 0.031534 
34 1 -0.00858603 0.00823816 0.0128938 0.0175453 
398 1 0.0119026 -0.000744266 -0.000404499 0.0119327 
170 1 -0.0136479 -0.00680848 -0.00883929 0.0176282 
235 1 -0.000125006 -0.0289708 -0.00497014 0.0293944 
3852 2 -0.0013862 -0.0222696 -0.0022202 0.0224229 
816 1 0.00889422 -0.00106082 0.00966184 0.0131751 
3931 2 -0.00800043 -0.0202865 0.0213028 0.0304854 
274 1 -0.0105108 -0.00917886 -0.00984275 0.0170766 
30 1 0.0137355 -0.000418984 -0.00624867 0.0150959 
2066 1 0.0229889 -0.0158966 0.0149342 0.0316894 
1082 1 0.0122853 0.0128006 -0.000254861 0.017744 
1372 1 -0.000201628 0.000640331 0.012486 0.012504 
1265 1 0.00361205 0.00657564 -0.0145948 0.0164102 
601 1 0.0190682 0.00808299 0.0185679 0.0278154 
540 1 0.00596337 0.0178787 0.0135456 0.0232097 
589 1 -0.00225869 0.0168413 -0.00510286 0.0177418 
958 1 -0.000340026 0.00922417 -0.0155045 0.0180441 
504 1 -0.0184649 0.0115869 0.00882512 0.0235179 
1349 1 0.00588443 0.0230171 0.0150579 0.0281275 
9 1 -0.00316066 -0.0164002 0.00750735 0.0183116 
149 1 0.00759729 0.00914205 0.0161419 0.0200464 
163 1 0.00868682 0.0124864 -0.017967 0.0235411 
4247 2 0.00276707 -0.00564936 -0.0153169 0.0165584 
1584 1 0.028788 -0.00960355 -0.0302279 0.0428334 
3570 2 -0.0139005 -0.00701937 -0.0064396 0.0168512 
237 1 0.0040587 0.0035467 -0.00517108 0.00746942 
490 1 -0.000151063 -0.00383163 0.0178933 0.0182995 
50 1 -0.0114758 -0.0268213 0.0134186 0.0321113 
152 1 -0.00331011 0.00476205 0.0103789 0.0118893 
3652 2 0.0131275 -0.00154546 -0.00453554 0.0139746 
3823 2 -0.00854347 0.0100578 -0.00896631 0.0159545 
902 1 0.00727598 0.0180562 -0.00432709 0.0199422 
3574 2 -0.00573598 0.00706608 -0.0110918 0.0143478 
770 1 0.000777012 -0.0132391 0.00143998 0.0133399 
154 1 0.00680293 0.00452999 -0.0160969 0.018053 
116 1 0.0147917 -0.0162372 0.00090158 0.0219831 
710 1 -0.0171433 -0.0274741 0.00523541 0.0328044 
1956 1 -0.00695925 0.0160158 -0.0313522 0.0358873 
1810 1 -0.0173124 -0.0029965 0.0169079 0.0243839 
2072 1 -0.000825715 -0.0108657 -0.0217997 0.0243716 
1649 1 0.0100454 -0.0078361 -0.00532037 0.0138066 
186 1 -0.00429536 -0.0187556 0.0182452 0.0265163 
1063 1 -0.00550432 0.000414409 -0.0173105 0.0181693 
432 1 -0.0147534 0.00674836 -0.0182912 0.0244493 
2495 1 -0.0191449 -0.0171675 0.0152641 0.0299039 
3896 2 -0.00424548 -0.00340354 -0.0033706 0.00640071 
1071 1 -0.0092259 -0.00573524 -0.0116679 0.0159421 
913 1 0.0165714 -0.0217653 0.00837665 0.0286096 
1068 1 0.0235809 0.0082093 0.00767983 0.0261234 
265 1 -0.00776315 0.00462844 0.00795531 0.0120406 
1287 1 -0.00247769 0.0206043 -0.00650147 0.0217473 
3799 2 -0.00413251 -0.00448619 -0.0100131 0.0117245 
554 1 0.00248914 2.59838e-05 -0.0117824 0.0120425 
1414 1 -0.00584182 0.0127984 -0.0233693 0.0272773 
213 1 0.00639767 -0.0148149 -0.00330081 0.0164714 
341 1 -0.0115054 -0.00535787 -0.00816114 0.0150892 
3682 2 -0.0164767 0.0013078 -0.0197943 0.0257877 
754 1 -0.00745475 0.0350634 -0.00712925 0.0365491 
112 1 -0.00606787 0.00546467 0.000600166 0.00818791 
1041 1 -0.0135595 -0.036205 -0.00232013 0.0387304 
119 1 -0.00360961 -0.0138827 0.0209395 0.0253815 
415 1 0.0117307 0.001961 -0.00256671 0.0121673 
995 1 0.00978638 0.0142978 0.00373094 0.0177234 
4128 2 -0.0111134 -0.011261 0.0257319 0.0302068 
8 1 0.0186349 0.0181357 -0.00105502 0.0260246 
94 1 -0.00640211 -0.00387776 0.0125634 0.014624 
48 1 -0.00905201 -0.00179334 -0.00312099 0.00974143 
1270 1 0.0137987 -0.0147969 0.00653442 0.0212615 
3866 2 0.0018164 0.00215417 -0.00410294 0.00497734 
2206 1 0.00869516 -0.00776012 0.0019482 0.0118161 
3490 2 -0.00665888 -0.0187186 -0.0109335 0.0226775 
3072 1 0.00284508 -0.00814076 0.0248912 0.0263427 
3002 1 0.0210348 -0.0200155 0.00995367 0.0306946 
92 1 -0.0078363 0.0284222 0.00959299 0.0310041 
335 1 -0.00763802 0.0133311 -0.010327 0.0185123 
4034 2 -0.0230512 -0.014828 0.0022081 0.0274973 
1186 1 0.0069339 0.0024745 0.00160179 0.00753445 
1114 1 0.0239623 0.00403532 0.00199162 0.0243812 
1821 1 -0.00744322 -0.00697739 -0.0067049 0.0122082 
1922 1 -0.00847771 -0.0192105 -0.0104948 0.0234746 
451 1 -0.00774974 -0.00832254 -0.00813781 0.0139838 
3960 2 0.00120156 -0.00423442 4.39507e-05 0.00440182 
100 1 -0.00830941 0.00990285 -0.00145348 0.0130087 
1180 1 -0.00747007 -0.0163914 -0.00777192 0.0196184 
165 1 0.0172626 0.0043868 -0.00544944 0.0186263 
388 1 -0.0160764 -0.0135142 -0.011024 0.0237195 
3742 2 0.0232293 -0.00748438 0.0139064 0.0280892 
323 1 -0.0101036 0.0148266 -0.0276081 0.0329259 
288 1 -0.00838314 0.000645354 0.00974682 0.0128722 
3942 2 -0.00914476 0.0132762 0.0241093 0.0290024 
66 1 0.00466704 0.0117579 0.00697044 0.0144436 
340 1 0.00046891 -0.0279228 0.00851215 0.0291952 
138 1 -0.00477599 0.0178683 -0.000305719 0.0184981 
879 1 -0.000787529 0.000216174 -0.00477324 0.0048426 
3808 2 0.00545871 -0.0148499 0.00487313 0.0165549 
834 1 -0.0131504 0.00265164 0.00473041 0.0142247 
18 1 -0.00538078 -0.0111638 -0.0158037 0.0200833 
3679 2 -0.00353726 -0.0058536 0.00203496 0.00713568 
52 1 -0.00672608 0.00461341 -0.00238122 0.0084967 
407 1 -0.0201072 -9.38539e-05 -0.00706282 0.0213117 
360 1 0.0190351 0.00731676 -0.0343692 0.0399639 
2885 1 -0.00696544 -0.0116757 -0.0109794 0.0174753 
3526 2 0.00118294 -0.0243449 -0.00575586 0.025044 
310 1 -0.0205722 0.000581694 0.00522535 0.0212334 
326 1 0.00332186 -0.0132326 0.00866146 0.0161604 
227 1 -0.00201001 -0.000312526 0.00488622 0.00529273 
2068 1 -0.00989927 -0.0235451 -0.0231872 0.0344965 
456 1 -0.000657866 -0.00176518 0.00482654 0.00518113 
279 1 -0.0125915 0.00831439 0.0096957 0.0179355 
305 1 -0.0287412 0.00175642 -0.00238893 0.0288938 
49 1 0.00978496 -0.00117325 0.00549238 0.0112822 
3512 2 -0.00741923 -0.0237655 0.0152697 0.0292063 
11 1 -0.000981967 -0.010532 -0.00679786 0.0125737 
189 1 0.0023615 0.00967324 0.016552 0.0193162 
2271 1 -0.00307378 -0.0077491 -0.0112849 0.0140301 
319 1 -0.0164747 -0.00550349 -0.0071498 0.0187836 
3566 2 -0.00872317 0.0079927 -0.00225244 0.0120437 
71 1 -0.0189951 0.0036491 -0.00300033 0.0195737 
1560 1 -0.00947503 -0.00314897 0.016753 0.0195027 
190 1 0.00506139 -0.00742219 -0.000691284 0.00901024 
123 1 0.0102508 0.00517555 0.0113602 0.016153 
27 1 -0.011276 0.0013857 -0.00931176 0.0146894 
162 1 0.0013365 0.00251557 -0.0173917 0.0176235 
255 1 -0.016711 0.00673295 -0.0111566 0.021191 
304 1 -0.0179767 0.00282553 -0.00741742 0.0196511 
321 1 -0.000702981 -0.0175023 0.0247676 0.0303358 
682 1 -0.0169506 -0.00244738 -0.00246985 0.0173035 
3469 2 0.0256685 0.0215649 -0.0165761 0.037399 
3539 2 0.0163844 0.0218227 0.00393379 0.0275708 
128 1 0.0186322 -0.00980434 0.00219923 0.0211688 
3562 2 0.0237048 0.00733788 0.0036876 0.0250871 
560 1 -0.0135113 -0.0100632 0.0104219 0.0198101 
212 1 0.0111876 0.00597969 0.00772374 0.0148518 
355 1 0.00204697 0.0141923 0.0236453 0.0276534 
156 1 0.0241105 0.00160503 0.0079955 0.0254523 
3620 2 -0.0111561 -0.00448367 0.00880713 0.014904 
1823 1 0.0272945 -0.0273925 -0.0142594 0.0412149 
1805 1 0.0042426 0.0163657 0.0168432 0.0238648 
2599 1 0.0118435 0.0179252 -0.0125135 0.024863 
327 1 -0.0147395 0.00824922 -0.00668838 0.0181669 
137 1 0.0149193 -0.00320931 0.0234481 0.0279768 
2334 1 -0.00263769 0.00967731 0.000740531 0.0100576 
3698 2 0.0022273 -0.016586 0.00717218 0.018207 
555 1 0.0104746 -0.00604622 -0.00352703 0.0125982 
4178 2 0.0142346 0.00302034 0.00388042 0.01506 
290 1 -0.00222293 0.0139012 -0.00911092 0.0167688 
284 1 -0.0148827 -0.00938561 -0.0162141 0.0239266 
3543 2 0.0137271 0.00238352 0.000191053 0.0139338 
366 1 0.00386589 -0.00894529 -0.00721766 0.0121267 
55 1 -0.00279659 -0.00163129 0.00239771 0.00402878 
273 1 -0.0060503 0.000471933 0.00162471 0.0062824 
3468 2 0.00999773 0.000413596 -0.00116254 0.0100736 
316 1 0.00982678 -0.0156898 0.0241958 0.0304659 
81 1 -0.0204953 0.0129715 0.015111 0.0285773 
322 1 0.00948032 0.00549633 -0.01247 0.0166008 
239 1 -0.00930775 0.00440908 -0.00699594 0.0124506 
734 1 -0.0172439 -0.0182421 -0.00688014 0.0260281 
384 1 0.0165581 -0.00545653 -0.000394505 0.0174385 
3476 2 -0.00943554 0.0136634 0.00485525 0.0173 
311 1 0.0226925 -0.0140798 -0.00757521 0.0277592 
3471 2 -0.0149806 0.00541612 -0.00815473 0.0178956 
1938 1 -0.00733173 -0.00654126 -0.00700707 0.0120682 
139 1 0.0226046 -0.00799139 -0.00907955 0.0256373 
727 1 -0.00999966 -0.00745317 -0.000684024 0.0124904 
1885 1 0.00229722 0.0157145 -0.0199571 0.025505 
2184 1 0.00123558 0.0419411 -0.0265846 0.0496721 
2494 1 -0.0167165 -0.0228423 -0.00780542 0.0293621 
2091 1 -0.00991852 -0.00717685 -0.00539396 0.0133783 
281 1 0.0168895 0.00324659 0.0124204 0.0212147 
863 1 -0.000655668 0.0219899 0.00623685 0.0228667 
176 1 -0.0215297 0.00911726 -0.0176622 0.029302 
3710 2 0.00088921 0.0144586 -0.00159498 0.0145734 
3572 2 0.00184424 -0.00947063 0.00531475 0.0110155 
4197 2 -0.0166807 0.00151488 0.00474406 0.0174082 
343 1 0.00517575 -0.00898092 -0.0212937 0.0236826 
282 1 -0.000418019 0.00189084 0.00299288 0.00356474 
1038 1 -0.000306003 -0.0114766 -0.00725191 0.0135793 
408 1 0.0315315 0.0288079 -0.00802145 0.0434565 
412 1 0.021533 -0.0119453 0.00140455 0.0246644 
820 1 0.0117671 -0.00117598 -0.00255592 0.0120987 
585 1 -0.00457601 -0.00782178 -0.00928672 0.0129755 
3609 2 0.0194848 0.00186475 -0.00133964 0.0196196 
719 1 -0.0178528 0.0114489 -0.00224028 0.0213265 
608 1 0.00410896 -0.0300444 -0.0065273 0.0310186 
106 1 0.00325256 0.017513 7.62143e-05 0.0178126 
1047 1 -0.0258179 -0.00324162 0.00454195 0.026414 
3573 2 -0.000798584 0.00341891 -0.00837902 0.00908486 
751 1 -0.0155537 -0.000369197 0.00580338 0.0166052 
259 1 0.0144393 -0.0191766 0.00505208 0.0245308 
245 1 -0.0161371 0.0033902 -0.0203486 0.0261909 
613 1 -0.00907844 0.00251434 0.0313668 0.0327508 
4296 2 -0.00469939 0.00289676 0.00759266 0.00938744 
272 1 -0.0131004 -0.0184725 0.000731135 0.0226581 
4239 2 0.00145466 -0.0180909 -0.010247 0.0208422 
88 1 0.00953179 0.0212592 0.00740029 0.0244453 
4 1 0.0309748 0.00282846 -0.0106133 0.0328645 
361 1 0.00896881 0.0208907 -0.0278204 0.0359282 
358 1 0.000532438 -0.00583146 0.0195955 0.0204517 
194 1 0.00254075 0.00578095 -0.014496 0.0158116 
2373 1 -0.00402355 -0.0172177 -0.00634373 0.0187851 
1982 1 -0.00562301 -0.00736095 -0.0272115 0.0287448 
3953 2 -0.0108462 0.00632982 0.00123876 0.0126191 
414 1 0.000463241 0.0012879 -0.00587899 0.00603621 
3186 1 0.0106002 -0.0127135 0.014029 0.0216981 
177 1 0.0169343 -0.00484029 0.0194482 0.026238 
1962 1 -0.0063882 0.00842085 0.00675012 0.0125413 
706 1 0.0121738 0.000132785 0.00397114 0.0128058 
1544 1 -0.00501967 0.00159381 -0.0073511 0.009043 
4160 2 -0.000552017 0.00359584 -0.00314865 0.00481132 
19 1 -0.000997248 -0.0212956 -0.0112127 0.0240878 
3624 2 0.00820839 -0.0140789 -0.00882372 0.0185324 
115 1 0.0271392 -0.0126906 -0.00622214 0.0305991 
1102 1 -0.02051 0.00746714 -0.00769692 0.0231444 
1492 1 0.0130002 0.00341167 0.00755577 0.0154186 
649 1 0.0158633 0.0252747 -0.0127429 0.0324475 
113 1 -0.00640071 0.0152016 0.000971054 0.0165227 
1150 1 0.0142598 -0.00437305 0.00583519 0.0160161 
620 1 -0.0319303 0.0158301 0.0109829 0.0372929 
739 1 -0.00064523 -0.0041426 0.00292117 0.00510986 
2412 1 -0.00107031 0.0259311 0.00514788 0.0264588 
3746 2 0.0165066 0.0020029 -0.0271492 0.0318364 
1225 1 0.0116783 0.0185162 0.0173418 0.027928 
241 1 0.00541557 0.0204438 -0.00371185 0.0214722 
83 1 0.00774939 0.0196241 -0.00508025 0.0217018 
1006 1 -0.000228301 0.00130103 -0.00209089 0.00247318 
4046 2 -0.034128 0.00492058 -0.00606948 0.0350111 
96 1 0.0150589 -0.0174569 -0.00406911 0.023411 
411 1 0.0138946 0.00960884 0.00365123 0.0172836 
2454 1 0.00489394 -0.00624351 -0.00689309 0.0105094 
404 1 0.00300858 0.0057418 0.0162784 0.0175216 
226 1 0.0199602 0.0009716 0.0198624 0.0281757 
534 1 0.00792814 -0.0038907 0.0153704 0.0177269 
3538 2 0.00783164 0.00968677 0.00978293 0.015839 
761 1 0.0149315 0.0137768 -0.000823251 0.0203329 
246 1 0.0206019 -0.018313 0.0137065 0.0307843 
2229 1 0.0167276 -0.00256827 0.00981574 0.0195642 
146 1 -0.000763734 0.0212383 -0.00194948 0.0213412 
3608 2 0.00720351 -0.0170214 -0.013034 0.0226165 
503 1 -0.00955893 0.000413178 0.0105608 0.0142505 
505 1 0.0106652 -0.00105494 -0.0145281 0.0180534 
1430 1 -0.011878 -0.0101642 0.00582333 0.0166826 
97 1 -0.000637973 0.0115213 -0.00427732 0.0123062 
1723 1 0.00741941 -0.0144629 -0.0197492 0.0255784 
3561 2 -0.00730732 0.0118872 0.00357753 0.0144049 
20 1 -0.00713609 -0.0169985 -0.0138196 0.0230402 
263 1 -0.0191407 0.0111318 0.0158183 0.0272121 
817 1 0.0163158 -0.0103767 -0.0053012 0.0200495 
1034 1 0.00326509 0.00575535 0.00465086 0.00808798 
353 1 0.00982592 -0.0101598 -0.0012855 0.0141923 
1260 1 0.00616527 0.0067927 -0.00897735 0.0128353 
998 1 0.00599123 0.00569685 -0.00930708 0.0124487 
1932 1 0.0166313 -0.015216 0.00347943 0.0228086 
36 1 0.0082358 -0.0134109 0.0157444 0.0222613 
38 1 -0.0174311 -0.0135343 -0.0107607 0.0245522 
3130 1 0.000184834 0.00888115 -0.00814305 0.0120507 
1973 1 0.0185959 -0.0211027 0.0293036 0.0406181 
307 1 -0.00791389 -0.00374219 -0.0173561 0.0194388 
2714 1 0.0291717 0.0102918 0.00541891 0.031405 
28 1 -0.00737681 -0.0156702 -0.0188337 0.0255867 
1937 1 -0.00223044 -0.00293366 -0.00923227 0.00994063 
562 1 -0.0143597 -0.0150823 -0.00238581 0.0209611 
3011 1 -0.0204262 -0.0117773 0.00796225 0.0248864 
410 1 0.0246341 -0.00234737 0.00641936 0.0255648 
693 1 0.0144173 0.0243466 -0.00812301 0.029438 
367 1 -0.0114873 0.000428875 -0.00459047 0.012378 
318 1 0.0213972 0.00752488 0.00270527 0.0228426 
735 1 0.0117996 -0.0128502 0.0166105 0.0240887 
600 1 -0.0121116 0.00942757 0.0193056 0.0246632 
3590 2 -0.0141431 0.00406353 -0.0286016 0.0321651 
3636 2 0.0132074 -0.0321942 0.00549342 0.0352289 
26 1 -0.00467984 0.0180493 0.00713775 0.0199656 
1199 1 0.0124145 -0.00741132 -0.00203031 0.0146003 
614 1 0.00895651 -0.0122299 -0.00476173 0.0158891 
459 1 0.0189596 0.00687967 -0.00536205 0.0208697 
3645 2 0.0117228 0.0183253 0.00495756 0.0223118 
574 1 -0.00118441 0.0143313 -0.0205814 0.0251074 
780 1 0.0178903 -0.00409096 -0.00393067 0.0187683 
161 1 0.00894483 0.0244955 -0.0133636 0.0293023 
309 1 0.0195614 0.00752179 0.00194432 0.0210477 
365 1 -0.00999956 0.00119931 -0.00325595 0.0105845 
191 1 -0.00713173 0.0226841 -0.00387823 0.024093 
1766 1 0.0167182 0.0301101 -0.00874559 0.0355331 
2775 1 -0.0112369 -0.0167347 -0.00619543 0.021088 
1030 1 -0.00839695 -0.00338362 0.0160419 0.0184201 
1505 1 0.0034083 0.0233105 0.0183203 0.0298434 
3872 2 -0.00390191 0.0106308 -0.00388125 0.0119709 
580 1 -0.0065183 -0.0153693 -0.0125549 0.0208885 
2054 1 -0.0308896 -0.00977723 -0.0125449 0.0347439 
2064 1 0.00722566 0.00136827 -0.011478 0.0136318 
529 1 0.00703802 0.0014731 -0.0133511 0.0151643 
402 1 0.00637268 0.013614 -0.0136155 0.0202813 
124 1 0.00569488 -0.0102913 -0.0035433 0.0122841 
744 1 -0.000738718 0.0199507 -0.00360069 0.0202865 
185 1 0.0209882 -0.011526 0.0286153 0.0373121 
315 1 0.00341718 -0.0125383 -0.0158141 0.0204688 
655 1 -0.0131047 0.0114867 0.00253665 0.01761 
765 1 -0.00770416 0.0302095 0.0103307 0.0328434 
140 1 0.00544148 0.0115243 0.0163652 0.0207422 
59 1 -0.00682263 -0.00801279 0.00541384 0.0118348 
54 1 0.00862279 0.00975053 0.0355423 0.0378508 
3506 2 0.0168532 0.00387498 -0.0018044 0.0173868 
666 1 -0.0115391 -0.00914266 0.0102214 0.0179225 
43 1 0.00158072 0.0387607 0.00604263 0.0392607 
334 1 0.00771421 0.0134211 0.00867741 0.0177464 
267 1 0.00906651 0.00958059 0.00849857 0.0156912 
99 1 0.023382 -0.022901 0.0244883 0.040876 
1189 1 -0.0161433 -0.0159565 -0.0237346 0.0328413 
201 1 0.00939097 -0.00325524 -0.0114928 0.0151944 
380 1 0.0147009 0.0149552 -0.0196205 0.0287183 
1777 1 0.0124061 -0.00604736 -0.0138582 0.0195584 
2597 1 0.0274803 0.00417206 -0.0198154 0.0341354 
2484 1 0.0335615 0.0132863 -0.0139238 0.0386881 
308 1 -0.0167765 -0.0139513 -0.0102066 0.0240887 
3918 2 -0.00506011 0.0128703 -0.0135987 0.0193952 
89 1 -0.00779759 -0.0244695 -0.011869 0.0282919 
300 1 -0.000647198 0.0120054 -0.00421247 0.0127395 
3582 2 0.00430428 0.0368616 -0.00654629 0.037685 
712 1 -0.0129358 0.00605629 0.0141691 0.0201191 
3836 2 0.000720189 0.00286889 -0.00815611 0.0086759 
268 1 0.0126367 0.0101385 -0.00743765 0.0178268 
788 1 0.0106394 -0.0101004 -0.0144076 0.020562 
4091 2 -0.00819783 0.0117207 0.0262626 0.0299049 
371 1 0.0146899 -0.00609837 -0.0128028 0.020418 
3505 2 0.00062373 -0.00828632 0.0186441 0.0204121 
266 1 -0.00712036 -0.000822859 -0.000538014 0.00718791 
3571 2 -0.0268187 0.0311351 -0.00818178 0.0418996 
637 1 -0.0113854 0.00190467 0.0059132 0.01297 
157 1 0.0261756 0.0130671 0.00131964 0.0292857 
257 1 0.00143691 0.0141614 0.024442 0.0282846 
571 1 -0.0168895 -0.0060355 -0.0171954 0.0248468 
665 1 -0.00541031 0.0121311 0.0157074 0.0205708 
448 1 -0.0202644 0.00116549 0.00200539 0.0203968 
827 1 0.0285158 0.0111143 0.00104818 0.0306231 
3475 2 -0.00953734 -0.00641638 0.00583086 0.0128891 
73 1 -0.00263519 0.0217637 -0.00844353 0.0234925 
373 1 -0.000164747 -0.0159313 0.00682423 0.0173322 
247 1 -0.00860402 0.00271631 0.00502821 0.0103291 
107 1 0.00614447 0.00180607 0.0094468 0.0114131 
675 1 0.00979658 0.00923987 -0.0236585 0.0272226 
434 1 0.00149531 0.0124832 0.00726374 0.0145199 
159 1 0.00961756 -0.00313891 -0.00339669 0.0106718 
32 1 -0.00388525 0.00888242 -0.00734607 0.0121638 
3579 2 -0.00905679 -0.0222035 0.00131319 0.0240156 
394 1 -0.0119156 -0.00669364 0.00291368 0.0139741 
260 1 -0.0170617 -0.00492486 0.00527005 0.0185237 
3972 2 -0.0076784 0.000615903 0.0261673 0.0272775 
1801 1 -0.0183446 -0.00435082 0.0136161 0.0232562 
2122 1 -0.00206634 0.0140691 0.006464 0.0156203 
1966 1 0.0112597 0.013645 -0.0113789 0.0210344 
291 1 0.00105792 -0.00596393 0.00705917 0.00930159 
2047 1 0.00963949 -0.00404341 0.00309083 0.0109006 
1899 1 -0.0142822 0.043646 0.00541148 0.0462411 
622 1 -0.0208037 -0.0020594 0.00438928 0.0213612 
1993 1 0.000577663 0.0116417 0.00242383 0.0119054 
62 1 0.0176699 0.0113993 -0.00197475 0.0211204 
2187 1 0.0171449 0.00253511 -0.018844 0.0256022 
4318 2 0.00692369 -0.00841113 -0.00229909 0.0111342 
44 1 -0.0179734 -0.0193141 0.00370131 0.0266416 
824 1 -0.01839 -0.00189509 -0.00373862 0.0188616 
1282 1 -0.0162849 -0.0108346 0.0183563 0.0268243 
3626 2 -0.0027143 0.00421663 0.000333409 0.00502579 
819 1 0.0141948 -0.0073643 -0.00828309 0.0180093 
773 1 -0.00488556 -0.0136629 0.00284903 0.0147872 
270 1 0.0146788 -0.0149986 0.021348 0.0299359 
14 1 -0.011438 0.0165455 -0.0106194 0.0227454 
3540 2 0.00880944 -0.0174493 0.00110475 0.0195781 
997 1 0.0103245 0.015638 0.0165814 0.0250217 
4275 2 -0.00238006 -0.0200248 -0.0102933 0.0226408 
164 1 0.00394742 0.0121092 0.0333457 0.0356952 
234 1 -0.0169621 -0.00738475 0.0050606 0.0191796 
1125 1 -0.00188419 0.0202615 -0.010199 0.0227618 
3985 2 -0.0182036 -0.00496513 0.0113143 0.0220008 
328 1 0.000207744 -0.00750573 -0.00947919 0.0120927 
3474 2 0.000941901 0.00856343 -0.00116521 0.00869352 
543 1 -0.000610254 -0.0137853 0.00501408 0.0146816 
293 1 0.00409398 -0.00388518 -0.00216795 0.00604609 
3458 2 0.011455 -0.017554 0.00521667 0.0216003 
390 1 -0.00812652 -0.0163312 0.0177031 0.0254194 
3706 2 0.0335711 -0.00105533 -0.0196448 0.0389108 
2169 1 0.00644554 -0.00519398 0.0102035 0.013139 
1786 1 -0.01679 0.011841 -0.0141735 0.02496 
1478 1 0.00881077 -0.00528462 0.0141665 0.0174999 
87 1 -0.0142879 -0.0115514 0.00293286 0.0186059 
4090 2 -0.00300536 -0.018072 0.023952 0.0301551 
142 1 -0.00569055 0.00481921 0.015647 0.0173331 
1650 1 -0.0137252 -0.00381791 -0.0169013 0.0221045 
153 1 -0.000342004 0.00626672 0.00641035 0.00897114 
374 1 -0.000200621 -0.0138084 0.0136832 0.0194408 
602 1 -0.00799487 0.000898183 0.00361279 0.00881912 
1277 1 -0.0129651 -0.00615502 0.00918483 0.0170393 
76 1 -0.0213951 -0.00529526 -0.00146628 0.0220893 
1370 1 0.00271414 -0.0129097 0.0195387 0.0235752 
221 1 0.0120305 -0.0134508 -0.0179474 0.0254512 
604 1 -0.000140746 0.0187228 0.0113662 0.0219033 
1161 1 -0.00976505 0.00163324 0.0258405 0.0276723 
1718 1 -0.0190549 0.0008931 -0.00569401 0.0199075 
178 1 0.0177616 -0.0180093 -0.00159878 0.0253449 
295 1 -0.0104716 -0.0118885 -0.000624939 0.0158551 
1472 1 -0.0170397 -0.0191655 0.0089872 0.0271742 
4159 2 -0.00444605 -0.0137459 -0.00741704 0.0162397 
3467 2 0.0182303 0.000516091 0.0049774 0.0189046 
3531 2 0.0187001 0.00360605 0.0292101 0.0348702 
2720 1 -0.033998 0.00464202 0.00210116 0.0343777 
1851 1 0.00978455 0.0168392 0.000890756 0.0194959 
732 1 -0.0169922 -0.0135855 -0.000379831 0.0217588 
4009 2 0.0134329 0.00961146 -0.00966953 0.0191395 
3878 2 0.000683397 0.00173105 -0.00483247 0.00517845 
3185 1 0.000388309 0.000597829 -0.00426416 0.00432334 
110 1 -0.024882 0.00294509 0.0026777 0.0251984 
2963 1 -0.000169912 0.0140773 0.00403767 0.0146459 
2608 1 -0.00529916 -0.00200467 0.00614549 0.00835864 
3301 1 0.00663242 -0.00673682 0.00148428 0.00956958 
3759 2 -0.00324167 0.0150601 -0.00161646 0.0154896 
4171 2 0.0117914 -0.00349273 0.00593763 0.0136562 
2118 1 -0.00932119 -0.00428489 -0.0246662 0.0267146 
1742 1 0.00969448 -0.0201154 -0.00243047 0.0224615 
642 1 0.00992951 -0.016387 0.0152658 0.0244984 
3366 1 -0.0193539 0.00654142 0.00885322 0.0222653 
144 1 0.0238481 0.00075716 0.00142665 0.0239027 
681 1 0.0129686 -0.00937756 -0.00619216 0.01716 
1666 1 0.0205593 -0.0060469 -0.0121147 0.0246173 
183 1 -0.0178588 -0.00490797 -0.00161845 0.0185915 
694 1 -0.0169101 0.00641797 0.0194271 0.0265434 
444 1 -0.00460772 0.0234498 -0.011894 0.0266944 
869 1 -1.77343e-05 -0.0241016 0.0122598 0.0270405 
920 1 -0.00339388 -0.0131424 -0.00564257 0.0146996 
53 1 0.00949389 0.00040727 0.00489135 0.0106876 
1450 1 -0.0321333 -0.0186033 0.0102436 0.038517 
1579 1 0.0242224 -0.0127926 0.0136909 0.0306238 
51 1 0.0102665 0.000638035 0.0107475 0.0148767 
4187 2 -0.0128814 -0.00339201 -0.0387956 0.0410187 
1694 1 0.00972559 -0.0160882 0.0010333 0.0188277 
1590 1 -0.000479153 0.0170933 0.00327414 0.0174106 
2005 1 -0.0058172 0.00520486 0.0433906 0.0440872 
736 1 -0.00230341 -0.0102061 -0.0199148 0.022496 
363 1 0.00262982 -0.00187987 0.00864937 0.00923371 
230 1 -0.00148177 -0.00397731 0.0318301 0.0321119 
2538 1 -0.00699434 0.00563258 -0.0145475 0.0170961 
357 1 -0.0278908 -0.000462542 0.00455243 0.0282637 
3849 2 0.0191417 0.00582206 0.0209017 0.0289341 
4102 2 0.0200901 -0.0212271 0.00841684 0.0304145 
1032 1 0.0130015 -0.00358976 -0.00133809 0.0135541 
78 1 0.000929891 -0.00298009 0.00367948 0.00482537 
564 1 0.00696185 -0.00582469 0.0247571 0.0263687 
797 1 0.0263472 -0.00367847 -0.00848005 0.0279217 