ITEM: TIMESTEP
90
ITEM: NUMBER OF ATOMS
4320
ITEM: BOX BOUNDS pp pp pp
0.0000000000000000e+00 1.9309999999999999e+01
0.0000000000000000e+00 1.9309999999999999e+01
0.0000000000000000e+00 9.6549999999999994e+00
ITEM: ATOMS id type c_displacement[1] c_displacement[2] c_displacement[3] c_displacement[4] 
4012 2 0.0148591 -0.109937 -0.0693602 0.130834 
2361 1 -0.061057 -0.0395736 -0.144687 0.161952 
79 1 0.0587086 -0.0478876 -0.064717 0.0996405 
781 1 0.0474156 0.0585032 0.137167 0.156479 
461 1 0.0371432 0.0606506 0.0863877 0.111897 
3704 2 0.0437041 -0.0932842 0.0580175 0.118229 
629 1 -0.00934584 0.0965092 0.0532415 0.110617 
1571 1 0.0370216 -0.0647775 -0.0592027 0.0952454 
58 1 0.0463944 0.180644 0.00689656 0.186634 
2372 1 -0.0752774 -0.0328962 -0.0455985 0.0939578 
372 1 0.00565119 -0.0828969 -0.0312179 0.0887603 
3504 2 -0.0595001 -0.0578785 0.0491554 0.0964699 
4130 2 0.0630505 -0.0105566 -0.0973485 0.116463 
1262 1 0.0314008 -0.00129617 -0.0565011 0.0646535 
907 1 -0.10867 -0.0357191 -0.153282 0.191261 
3659 2 0.0293754 0.0729136 -0.0474295 0.0918089 
1298 1 0.0594137 0.046458 -0.0949703 0.121275 
1716 1 0.0461232 0.0392897 -0.0461055 0.0761364 
1182 1 0.0174136 0.0520564 -0.0497253 0.0740656 
683 1 0.0381136 -0.0627219 0.00957813 0.0740164 
1958 1 -0.0719483 -0.000147908 -0.0283484 0.0773319 
1554 1 0.0330456 -0.0826288 -0.0674315 0.111654 
1037 1 -0.0101316 -0.0923798 -0.00181502 0.0929514 
749 1 0.0034417 -0.162103 -0.0424346 0.167601 
3628 2 0.0292764 0.00746406 0.0374216 0.0480956 
946 1 -0.129571 -0.0635996 0.0289696 0.147217 
2232 1 -0.102585 -0.188558 -0.139932 0.25624 
7 1 0.0257049 -0.0717945 0.0655441 0.100555 
501 1 0.0124417 -0.0381586 0.0197766 0.0447436 
179 1 -0.049264 0.00259729 0.0792805 0.0933761 
714 1 -0.114642 0.0459419 0.0175545 0.124746 
4166 2 0.0041777 -0.0519544 0.126387 0.136712 
276 1 -0.0153792 -0.0857045 0.0551396 0.103064 
767 1 0.0394636 0.00761575 0.0537941 0.0671504 
3890 2 -0.135573 -0.0511853 -0.0452921 0.151826 
6 1 0.0178828 0.17375 0.0652504 0.186458 
2086 1 0.0984656 0.025827 0.00815768 0.102123 
224 1 0.126129 -0.08611 0.0161458 0.153571 
3660 2 0.0248639 -0.0395859 0.108835 0.118449 
596 1 -0.0600971 -0.0353252 -0.0397582 0.0802512 
1214 1 0.0997284 -0.0356338 -0.0620172 0.122726 
3686 2 -0.053109 -0.00426612 0.0472124 0.0711884 
427 1 -0.159418 0.01599 0.0525253 0.168608 
350 1 0.0490809 0.0484312 -0.0767397 0.103167 
85 1 -0.0645857 0.0470045 0.0948248 0.123986 
598 1 0.0488895 -0.162405 0.0404091 0.174352 
3554 2 0.105777 -0.000975357 -0.0316103 0.110403 
29 1 -0.238922 0.0960953 -0.0357637 0.259995 
464 1 0.0309607 -0.0348321 -0.0992143 0.109614 
3619 2 -0.0790326 -0.0189602 0.155219 0.17521 
12 1 -0.0738113 0.0301529 -0.0762917 0.110353 
364 1 -0.149381 -0.0275415 -0.0454042 0.15854 
1849 1 -0.0973869 -0.0581015 -0.119248 0.16456 
3663 2 -0.222088 0.0619323 -0.0759202 0.24274 
3517 2 0.0037282 0.0196942 0.157542 0.158812 
25 1 0.210314 0.0542337 -0.0667504 0.22722 
4163 2 -0.0299503 -0.0483071 0.00592785 0.0571466 
399 1 0.0333927 0.0684137 -0.0398539 0.0859292 
4265 2 -0.0445801 0.0456247 0.168808 0.180458 
527 1 -0.0254826 0.0825897 -0.0112943 0.0871664 
200 1 0.0388414 0.0558537 0.113752 0.132543 
1951 1 0.087162 0.0791506 0.00138502 0.117745 
644 1 0.0346231 -0.0391562 0.0103506 0.0532832 
193 1 -0.0110142 0.0195221 0.0445106 0.0498359 
550 1 0.0811168 -0.0336022 0.0301729 0.092841 
69 1 0.0553486 -0.060469 0.00620968 0.0822103 
842 1 0.0611996 0.0128334 -0.0252534 0.0674376 
578 1 0.0534338 -0.0780669 -0.0257098 0.0980337 
172 1 -0.0112009 -0.0194001 0.0798567 0.0829392 
381 1 -0.0269005 -0.0254665 0.0543617 0.0657828 
3524 2 0.00871259 0.0474324 0.0759222 0.089944 
688 1 -0.0215894 0.150761 0.0489999 0.159987 
3651 2 -0.01596 0.0177227 0.0941145 0.0970894 
2367 1 0.0592453 0.0693313 -0.0898479 0.128021 
1244 1 -0.136219 0.00841733 0.00011094 0.136479 
796 1 0.0335325 0.137056 -0.0550834 0.151469 
691 1 -0.000608436 0.0236817 -0.121272 0.123564 
421 1 0.0477459 0.0685842 -0.0101954 0.0841868 
597 1 0.0548911 0.0104055 0.0607142 0.0825077 
3617 2 0.144686 -0.000249702 -0.0475089 0.152287 
120 1 0.0402981 0.235576 0.11104 0.263533 
769 1 -0.0736394 -0.0771298 0.0247145 0.109465 
2142 1 0.0407394 0.0460163 -0.0158898 0.0634798 
3611 2 0.0681598 -0.0133579 0.175768 0.188994 
1915 1 0.0146432 0.122363 0.0807585 0.14734 
2140 1 0.0898472 -0.0493169 0.0419527 0.110746 
3828 2 0.0355315 0.108013 0.0947753 0.148026 
3204 1 -0.0432964 0.0388214 0.0868577 0.104527 
175 1 0.104581 -0.0738125 -0.0567027 0.140002 
2011 1 0.222422 0.112813 0.0790099 0.261612 
75 1 -0.0862834 0.112957 -0.053746 0.151963 
547 1 -0.0119023 -0.00160093 -0.157002 0.157461 
4316 2 -0.0995835 0.0920565 -0.0739448 0.154464 
559 1 0.0226242 0.0721951 -0.0551498 0.0936241 
717 1 0.0087061 0.0864366 -0.125921 0.152981 
242 1 -0.00645293 -0.0275113 0.168637 0.170988 
3510 2 -0.148071 -0.0024038 0.20883 0.256009 
130 1 0.0906506 0.0135227 0.0377311 0.0991163 
143 1 0.0146051 0.0811507 -0.0113384 0.0832304 
202 1 -0.130923 -0.121572 -0.00120586 0.178667 
182 1 -0.12392 0.065706 0.088251 0.165716 
84 1 0.0219414 0.0230069 -0.0223531 0.0388639 
3633 2 -0.0958888 -0.0207809 -0.0629521 0.116574 
35 1 -0.15802 0.0210943 0.14765 0.217292 
3612 2 0.000480712 0.0229135 0.0334551 0.0405525 
40 1 0.0624487 0.0894511 0.0558304 0.122549 
4005 2 0.104694 -0.106669 0.104084 0.182133 
718 1 -0.101375 0.00857979 -0.0357847 0.107848 
134 1 0.046327 0.0380909 0.0746857 0.0957865 
511 1 -0.154838 -0.0376628 0.0256118 0.161398 
757 1 -0.0342209 0.186019 0.00982291 0.189396 
3555 2 -0.034586 0.103331 0.0891559 0.140791 
3481 2 0.0140682 -0.0509245 -0.0681399 0.0862222 
135 1 -0.0658908 -0.0251016 -0.0445135 0.0833855 
369 1 0.0702459 -0.0325492 -0.0123461 0.0783987 
2148 1 -0.0176216 -0.0794383 0.0502011 0.0956092 
3462 2 0.0119321 -0.0922946 -0.15361 0.179602 
1914 1 -0.0404131 -0.0650469 -0.0981663 0.124503 
3661 2 0.0757537 -0.124289 -0.0316981 0.148967 
1871 1 0.00345549 0.0448162 -0.0117844 0.0464684 
320 1 -0.106659 -0.114016 -0.0598476 0.167206 
582 1 -0.0857545 -0.105611 0.0125307 0.136618 
766 1 0.00426616 0.0381716 -0.0782017 0.0871251 
3552 2 0.0815893 0.029017 -0.0431642 0.0967571 
2290 1 0.0344237 0.097283 0.012941 0.104002 
1794 1 -0.0811795 0.155617 0.0260393 0.17744 
753 1 -0.020062 -0.0357108 0.0293755 0.050405 
396 1 0.0698044 -0.0139565 0.163731 0.178536 
496 1 0.0228251 -0.0733833 -0.0746848 0.107163 
480 1 -0.0305066 -0.0841017 0.116997 0.147282 
253 1 0.103486 0.0040551 -0.079924 0.130819 
4033 2 0.032992 -0.0376806 -0.0528461 0.072808 
347 1 -0.0525702 -0.051976 -0.100935 0.125112 
586 1 -0.0726616 0.0203171 -0.0682948 0.101768 
3671 2 -0.0710523 0.00854031 -0.0466329 0.0854165 
37 1 0.113964 -0.177015 -0.0891087 0.22861 
782 1 0.0582629 -0.103734 -0.0508189 0.129375 
481 1 0.11294 -0.0672115 -0.041282 0.137757 
392 1 -0.0311955 -0.0309465 -0.0710335 0.0835261 
333 1 0.00566678 -0.0558903 -0.0404078 0.0691999 
342 1 0.00651015 -0.0604608 -0.0925468 0.110738 
1179 1 0.0486285 -0.0945988 -0.0936723 0.141733 
517 1 0.0578012 -0.0815997 -0.0325247 0.105154 
1824 1 0.0405001 -0.0156788 -0.0147942 0.0458797 
34 1 0.175796 -0.0490251 0.0609766 0.192421 
398 1 -0.000511902 -0.0104783 -0.0499396 0.0510296 
170 1 -0.0341708 -0.0401857 -0.0141403 0.0546122 
235 1 0.0177035 -0.0468569 0.034955 0.0610806 
3852 2 -0.0703988 -0.0186006 -0.0137471 0.074101 
816 1 0.0446227 -0.0657254 -0.139311 0.16037 
3931 2 -0.192355 -0.0801316 0.0556293 0.215676 
274 1 -0.00957037 -0.0736257 -0.079179 0.108543 
30 1 -0.000150914 -0.0776301 -0.0168002 0.0794273 
2066 1 0.0904185 -0.0251426 0.156703 0.182657 
1082 1 -0.0351205 -0.125957 0.181147 0.223412 
1372 1 0.0132037 -0.030842 0.0895406 0.0956195 
1265 1 0.0241697 -0.0102129 -0.00556345 0.0268222 
601 1 -0.0326362 0.0467752 0.0191854 0.0601757 
540 1 -0.106079 -0.150032 -0.0140801 0.184284 
589 1 -0.0171467 0.0623208 0.174701 0.186275 
958 1 0.103209 -0.0137805 0.103536 0.146839 
504 1 -0.0581664 0.082569 -0.0201095 0.102982 
1349 1 -0.182645 -0.0339413 0.0125667 0.186196 
9 1 0.0130856 -0.118639 -0.0366704 0.124865 
149 1 -0.0423588 0.00235535 0.01196 0.0440779 
163 1 -0.0222133 -0.271567 0.0977913 0.289491 
4247 2 0.0684908 -0.123861 -0.138076 0.197731 
1175 1 0.0208507 -0.116976 0.0176684 0.120127 
3570 2 -0.0284799 -0.125208 -0.0873168 0.155281 
237 1 -0.0222204 0.0562834 0.104766 0.120985 
490 1 0.0682255 -0.141763 0.0765927 0.17498 
50 1 0.073106 0.0208091 0.056056 0.0944446 
152 1 0.099979 -0.0167119 -0.243185 0.263466 
3652 2 -0.079959 -0.073676 -0.0329581 0.113613 
3823 2 0.0743604 0.0480296 -0.177041 0.197939 
902 1 -0.0408818 0.0340921 0.0566065 0.0777038 
3574 2 0.0213241 0.0127467 0.0036553 0.0251109 
770 1 -0.0111581 -0.00130669 -0.0942176 0.094885 
154 1 -0.0529623 -0.0720635 -0.0190058 0.0914296 
116 1 0.0862634 -0.0392809 0.145318 0.173499 
710 1 -0.0652797 -0.147457 -0.0520605 0.169456 
1956 1 -0.0770148 -0.0378213 0.0326252 0.091794 
1810 1 -0.11623 0.0140968 -0.00932405 0.117453 
2072 1 -0.0344137 -0.0137884 -0.0770341 0.0854908 
1649 1 -0.0576319 -0.0256511 -0.116194 0.132214 
186 1 -0.127873 0.0587977 0.0440904 0.147488 
1063 1 -0.24309 0.2 -0.153561 0.350248 
432 1 -0.131601 0.0660368 -0.0619795 0.159753 
2495 1 -0.0443597 -0.148749 -0.00960053 0.155519 
3896 2 -0.0555402 0.0112787 -0.103017 0.117578 
1071 1 -0.0356696 -0.00310822 0.0557671 0.0662718 
913 1 0.0373173 0.0375008 -0.0105142 0.0539392 
1068 1 -0.111749 0.0587322 -0.104286 0.163746 
265 1 -0.0839296 -0.0488163 -0.0956904 0.136323 
1287 1 0.0176208 0.0267386 0.0297638 0.0437187 
3799 2 0.153605 -0.108868 -0.116027 0.221154 
554 1 0.165657 -0.0604591 0.0195605 0.177427 
1414 1 -0.0122907 0.0538194 -0.0512026 0.0752947 
213 1 -0.00214874 0.0251011 0.0587857 0.0639566 
341 1 -0.097976 -0.0121351 0.0383421 0.105909 
3682 2 0.030734 0.102715 -0.0422241 0.115229 
754 1 -0.0339571 0.0172067 0.0377107 0.0535841 
112 1 -0.0192469 0.0675083 -0.00248648 0.0702424 
1041 1 -0.00416316 0.00880781 -0.0495006 0.0504502 
119 1 0.0571777 0.084664 -0.0639418 0.120523 
3998 2 0.0755115 -0.059777 0.172803 0.197829 
995 1 -0.0447608 -0.00679347 -0.0294754 0.054023 
4128 2 0.0534309 -0.0416404 0.243514 0.25276 
8 1 0.0191446 0.0588437 -0.0004543 0.0618814 
94 1 0.0415757 0.0836273 -0.0288915 0.0977588 
48 1 0.0923727 -0.035845 0.12706 0.161127 
437 1 0.0799061 -0.0339935 -0.0131675 0.0878289 
3866 2 0.0537547 0.0133285 -0.0406014 0.0686709 
2206 1 0.0323825 0.0283965 -0.0419124 0.0600969 
3490 2 -0.0114162 0.015916 -0.131441 0.132892 
3072 1 -0.00184962 -0.122012 0.0510534 0.132275 
3002 1 0.149909 0.0466687 -0.0294863 0.159751 
92 1 0.0310281 0.0740249 0.0492046 0.0941463 
335 1 0.0536978 0.0317876 -0.0404106 0.0743433 
3815 2 -0.00265705 0.0675443 -0.0108337 0.0684592 
1186 1 -0.0183283 -0.0323458 -0.0170437 0.0408982 
1114 1 0.0788036 -0.084733 0.0290634 0.119308 
1821 1 -0.12432 -0.0700646 -0.0317164 0.146187 
1922 1 0.0188457 -0.0816289 0.0507122 0.0979294 
451 1 -0.10489 -0.0406482 -0.0119848 0.113127 
3960 2 -0.028908 -0.0395647 0.075646 0.0901297 
100 1 -0.0759974 -0.0769172 -0.0147029 0.109124 
1180 1 0.0548807 -0.0360435 -0.0990523 0.118838 
165 1 0.0650167 0.00763577 -0.0519511 0.0835726 
388 1 -0.0458094 -0.00212798 -0.11814 0.126729 
3742 2 -0.032506 -0.0601688 0.0265896 0.0733753 
323 1 -0.0902978 0.0688716 0.0669267 0.131819 
288 1 -0.125234 0.0306999 -0.0479038 0.137553 
3942 2 -0.101513 0.129116 0.107678 0.196394 
66 1 0.036025 0.0610207 0.112251 0.132746 
340 1 0.12128 0.0813478 -0.0412542 0.151751 
138 1 -0.0272791 0.0176472 0.0816871 0.0879111 
879 1 -0.0814 0.0174876 -0.0458859 0.0950647 
3808 2 0.0760737 0.19155 -0.0619519 0.215213 
834 1 0.126162 0.0407388 0.00297304 0.13261 
18 1 -0.0418019 -0.0699923 -0.12597 0.150049 
3679 2 0.145979 -0.0816602 -0.109201 0.199758 
52 1 0.00234473 -0.192524 0.0336319 0.195453 
407 1 0.00175795 0.124553 -0.0905848 0.15402 
360 1 0.0553525 0.00946133 -0.0448412 0.0718621 
2885 1 -0.0750359 -0.0118529 0.0180375 0.0780783 
3526 2 -0.0784688 -0.24256 -0.011973 0.255217 
310 1 -0.100142 -0.0372573 -0.0700589 0.127768 
326 1 0.0675237 -0.0443203 0.0769562 0.111562 
227 1 -0.058499 -0.0844098 -0.0913122 0.137423 
2068 1 -0.0388039 0.021466 -0.183328 0.188615 
456 1 0.120654 -0.0120404 0.0689019 0.139463 
279 1 0.0816167 0.0605388 0.17178 0.199586 
305 1 -0.0159562 0.000585829 0.0627589 0.0647582 
49 1 0.018095 -0.00832762 -0.0106981 0.0226103 
3512 2 0.0576654 -0.201854 0.00726121 0.210055 
11 1 -0.0652476 -0.150465 -0.0320746 0.16711 
189 1 -0.161884 0.0630302 -0.0506218 0.180947 
2271 1 -0.0563046 -0.113324 -0.101763 0.162383 
319 1 -0.186021 -0.0640086 0.0326723 0.19942 
3566 2 0.0805424 0.00316329 -0.0475317 0.0935753 
71 1 0.0151799 0.00328266 0.0316278 0.0352352 
1560 1 -0.0859038 0.0642593 0.0654271 0.125656 
190 1 -0.0787939 -0.0188216 0.138186 0.160182 
123 1 0.0578865 -0.0103399 0.0866212 0.104695 
27 1 -0.000306492 -0.0473607 0.0562977 0.0735702 
162 1 -0.0105073 0.0580967 -0.0236822 0.0636119 
255 1 -0.150269 -0.0391528 0.0185392 0.156389 
304 1 -0.0118819 0.0144514 -0.101819 0.103524 
321 1 0.0215799 -0.0319211 0.132909 0.138381 
682 1 -0.0899578 0.00283271 -0.0129475 0.0909289 
3469 2 0.0175251 -0.0015469 -0.0909179 0.0926045 
3539 2 -0.00273531 -0.00937933 0.0944245 0.0949286 
128 1 -0.00640946 -0.07575 -0.0985121 0.124434 
3562 2 0.110646 0.00683318 0.104412 0.152287 
560 1 -0.201408 -0.0726087 -0.0833418 0.229746 
212 1 0.0519316 0.0215849 -0.0629938 0.0844454 
355 1 0.0190907 0.041728 0.0688802 0.0827657 
156 1 0.0202198 0.0496956 0.0570066 0.0782832 
3620 2 0.107986 -0.0445872 0.00464441 0.116921 
1823 1 0.168021 -0.19456 -0.0795654 0.269101 
1805 1 -0.140176 -0.00683125 0.127928 0.189899 
2599 1 -0.0804071 0.0645196 0.10114 0.14442 
327 1 0.133525 0.0827739 0.0675799 0.171019 
137 1 0.0728833 0.0324473 -0.033559 0.0865506 
2334 1 0.0184159 -0.000928462 0.0120343 0.0220189 
3698 2 -0.00579838 -0.0174211 -0.0643125 0.0668821 
555 1 -0.0260694 -0.0213738 -0.0202398 0.0393205 
4178 2 0.0043917 -0.00506374 -0.0173517 0.0186013 
290 1 0.0388095 -0.0262007 -0.0931794 0.104284 
284 1 0.00730265 0.0689659 0.0363173 0.0782852 
3543 2 -0.0530192 -0.114132 -0.0166198 0.126939 
366 1 0.0203179 -0.000840399 0.138722 0.140204 
55 1 0.0428572 0.0400071 0.0288325 0.0653347 
273 1 -0.0104132 0.034548 -0.118998 0.124349 
3468 2 0.0791653 -0.00104605 0.174597 0.191709 
316 1 0.143807 0.0474591 0.162395 0.222047 
81 1 -0.0417346 -0.0370788 0.00362521 0.0559442 
322 1 0.0492031 -0.0216927 0.0541697 0.0763274 
239 1 0.0683374 -0.00539793 -0.0372389 0.078012 
734 1 -0.022694 -0.0961367 -0.0422333 0.107429 
384 1 -0.024837 -0.0981672 -0.0981966 0.141054 
3476 2 0.0427336 0.0904938 0.0150929 0.101208 
311 1 -0.00676894 -0.11201 -0.0114809 0.1128 
3471 2 0.0426705 0.0230405 0.0664548 0.0822671 
1938 1 0.0631341 -0.0219846 0.00591252 0.0671132 
139 1 0.125789 0.0751417 -0.0734848 0.163919 
727 1 0.0948278 -0.161716 -0.0803248 0.203952 
1885 1 0.0347484 0.0759656 0.0384299 0.0919515 
2184 1 0.215738 0.0379906 -0.0320795 0.221394 
2494 1 -0.156645 0.0324499 -0.0899942 0.183547 
2091 1 0.0160033 0.00560878 -0.0429679 0.0461932 
281 1 0.0283837 0.109013 0.161221 0.196676 
863 1 -0.046911 0.0905495 -0.0155521 0.103159 
176 1 -0.0681801 0.0393165 -0.108333 0.133904 
3710 2 0.0198552 0.047104 -0.0652901 0.0829205 
3572 2 -0.0632291 -0.0851703 -0.0991159 0.145175 
4197 2 0.0361145 0.030964 -0.144746 0.152363 
343 1 -0.0451967 -0.0152033 -0.0882243 0.100287 
282 1 0.00236196 0.000919268 -0.0809365 0.0809762 
1038 1 0.0324402 0.0284957 0.0878706 0.0979061 
408 1 0.140872 -0.05461 0.0390401 0.156049 
412 1 0.097691 0.0052692 0.0641732 0.117002 
820 1 0.08743 0.0710343 0.145928 0.18435 
585 1 -0.0362736 -0.0401681 -0.0816464 0.097956 
3609 2 0.038169 -0.136727 0.0613193 0.154633 
719 1 0.006478 -0.0390577 -0.00526672 0.03994 
608 1 0.0932156 0.123691 0.117234 0.194249 
106 1 -0.00550186 0.0537094 0.00210857 0.0540316 
1047 1 -0.0794964 -0.0673303 -0.0465604 0.114109 
3573 2 0.0809971 0.0608154 -0.0609791 0.118227 
751 1 -0.00478624 -0.0675069 -0.0643199 0.0933656 
259 1 0.0364834 0.00669185 -0.0430213 0.0568036 
245 1 -0.0339862 0.0182087 0.0112635 0.0401682 
613 1 -0.0168725 -0.129989 0.0624715 0.145205 
4296 2 -0.027425 0.0475937 -0.00251201 0.0549873 
272 1 -0.106274 -0.144019 -0.0516064 0.186277 
4239 2 -0.195248 -0.0727462 -0.0801214 0.223234 
88 1 0.0403095 0.101905 0.0813254 0.136467 
4 1 0.0726747 -0.0214869 -0.0327215 0.0825469 
361 1 0.148802 0.0527871 -0.133192 0.206564 
358 1 -0.044585 0.0698948 0.106381 0.134871 
194 1 0.0164895 0.00766831 -0.0862739 0.0881697 
2373 1 0.0387542 -0.009018 -0.0557499 0.0684928 
1982 1 0.0698501 0.00935204 0.0763977 0.103938 
3953 2 0.0414415 0.0760348 0.0797577 0.117728 
414 1 0.0261605 0.0558665 -0.178917 0.189253 
3186 1 0.0566064 -0.0143638 -0.0405743 0.0711117 
177 1 0.0810162 0.0015492 -0.00856251 0.0814821 
1962 1 -0.0264602 0.142347 0.14911 0.207838 
706 1 0.0105076 0.07011 0.006607 0.0712002 
1544 1 0.0257673 -0.167926 0.037102 0.173895 
4160 2 -0.00272252 0.0831292 0.00823906 0.0835809 
19 1 -0.0597681 0.110145 -0.0552836 0.136969 
3624 2 -0.0660097 0.0196448 -0.0681317 0.0968769 
115 1 0.0334731 0.0226707 -0.151421 0.156725 
1102 1 -0.0611373 -0.0134692 0.0820354 0.103194 
2048 1 0.128019 0.0401427 0.0434556 0.141027 
649 1 0.0235594 0.0670487 -0.0065313 0.0713669 
113 1 -0.0113342 -0.106935 0.0298253 0.111594 
1150 1 0.0216889 -0.0135205 0.00254485 0.0256844 
620 1 0.031527 -0.102339 0.0408581 0.114615 
739 1 0.0449313 -0.0157875 -0.162249 0.169094 
2412 1 -0.0486718 -0.00186122 0.0136894 0.0505945 
3746 2 0.0930236 0.0064692 -0.209845 0.22963 
1225 1 -0.0140605 -0.0194796 0.180954 0.182542 
241 1 0.128682 -0.06007 -0.00873885 0.14228 
83 1 0.0442191 -0.0535324 -0.00175811 0.069456 
1006 1 0.0680674 0.0195322 -0.023677 0.0746678 
4046 2 -0.0801608 -0.0685757 -0.0434611 0.114093 
96 1 -0.060208 -0.165537 0.0800919 0.1935 
411 1 0.147085 0.0634006 0.0317667 0.163287 
2454 1 -0.0175946 -0.0277927 0.0611716 0.0694548 
404 1 0.0241752 0.0611753 0.0429293 0.0785479 
226 1 0.0456503 -0.0282015 0.0316801 0.062313 
534 1 0.0522205 -0.0494669 0.13107 0.14951 
3538 2 -0.0947867 0.0547799 -0.0433357 0.117743 
761 1 0.0399307 -0.0394359 0.0527065 0.0769911 
246 1 0.0493372 0.0284908 -0.0408747 0.0701187 
2229 1 -0.122767 -0.0998535 -0.0682584 0.172342 
146 1 0.0344775 -0.164698 -0.0784149 0.185642 
3608 2 -0.0668428 -0.0205163 0.0454128 0.0833739 
503 1 0.0863277 -0.043247 -0.0342848 0.102461 
505 1 0.126325 -0.10153 0.0224247 0.163613 
1430 1 -0.025022 -0.0828866 -0.086842 0.122629 
97 1 -0.170116 0.0714472 -0.0651496 0.195674 
1723 1 -0.00131863 -0.0464223 -0.0872928 0.0988777 
3561 2 0.0129099 0.19782 -0.0542563 0.205531 
20 1 -0.0644623 0.00994914 0.0178508 0.0676241 
263 1 -0.0558565 0.162368 -0.0139799 0.172276 
817 1 0.0905414 -0.091233 0.0327662 0.132645 
1034 1 -0.0554447 0.056878 0.00559636 0.0796275 
353 1 -0.00755804 -0.108593 0.164356 0.197136 
1260 1 0.0328984 0.110648 -0.0787047 0.139713 
998 1 0.029368 0.11971 -0.0735877 0.143555 
1932 1 0.104813 -0.0997867 -0.0638494 0.158177 
36 1 0.0608054 -0.186975 -0.103328 0.222112 
38 1 0.0298323 0.0671822 -0.0599631 0.094863 
3130 1 0.0214677 0.0151285 -0.036639 0.0450794 
1973 1 0.111273 0.119326 0.120388 0.202765 
307 1 0.111345 -0.0323942 0.0559293 0.128744 
2714 1 0.0804624 0.0220784 -0.024824 0.0870511 
28 1 0.0393933 0.0839813 -0.0107349 0.0933806 
1937 1 0.0122394 0.0866766 -0.0694339 0.11173 
562 1 -0.0652793 -0.115911 -0.0440942 0.140147 
3011 1 0.0164932 0.0265544 -0.00748072 0.0321423 
410 1 0.0632646 -0.159596 0.0502299 0.178875 
693 1 0.114399 0.0613468 0.172539 0.215917 
367 1 0.00568609 0.0118517 -0.0109887 0.0171332 
318 1 0.0577931 0.0361469 -0.169249 0.182461 
735 1 0.163334 0.0184429 0.0352652 0.168112 
600 1 0.025806 -0.00485643 0.0496523 0.0561683 
3590 2 0.0828379 0.125818 0.089384 0.175162 
3636 2 0.048568 -0.065424 -0.0126625 0.0824591 
26 1 -0.133545 0.00769922 0.100721 0.167446 
1199 1 0.0591147 0.106562 -0.0598774 0.135777 
614 1 0.00411144 0.0904892 -0.1134 0.145137 
459 1 -0.118131 -0.0311131 -0.0386934 0.128141 
3645 2 0.0628031 0.116664 0.0500729 0.14164 
574 1 0.0691594 -0.0800496 0.140675 0.176013 
780 1 0.1414 0.0360372 0.0131312 0.14651 
161 1 -0.0958159 -0.0405466 0.184165 0.211522 
309 1 0.0994305 0.0656997 -0.022854 0.121347 
365 1 0.0845244 -0.118433 0.0345048 0.149537 
191 1 -0.0776324 0.0822528 -0.0195792 0.114785 
1766 1 -0.0675586 -0.0599452 0.00333897 0.0903811 
2775 1 0.110267 -0.0835438 -0.000230322 0.138342 
1030 1 0.0786429 -0.168798 0.0270995 0.18818 
1505 1 0.167689 0.167385 0.151242 0.28109 
3872 2 -0.0541808 0.0408757 -0.0392341 0.0783945 
580 1 -0.0163067 -0.035744 0.0225344 0.0452917 
2054 1 -0.000824353 -0.0994008 -0.00582862 0.0995749 
2064 1 0.0404188 0.0250252 0.0318667 0.0572314 
529 1 0.0196842 0.0140957 -0.0531843 0.0584356 
402 1 -0.0412915 0.0753805 -0.00877523 0.0863957 
124 1 -0.123094 -0.0429882 0.0262294 0.132997 
744 1 0.110545 -0.0291615 0.0683094 0.13318 
185 1 0.0552237 -0.0537726 0.0958166 0.122971 
315 1 0.0582195 -0.0261468 -0.00403107 0.0639485 
655 1 0.00454739 -0.100655 0.184709 0.210403 
765 1 0.0470653 -0.0122277 0.0462847 0.0671337 
140 1 -0.0322081 0.0228695 -0.162928 0.167648 
59 1 0.0662195 -0.0596882 0.0900474 0.126713 
54 1 0.0527554 0.0858713 0.0414076 0.108957 
3506 2 -0.0264779 0.111331 -0.127262 0.171147 
666 1 0.05646 -0.234505 0.10143 0.261664 
43 1 0.0818795 0.0541532 0.13537 0.167218 
334 1 -0.117355 -0.07676 0.099061 0.17169 
267 1 0.11374 0.0798291 -0.175946 0.224202 
99 1 0.0929374 0.116088 0.0898656 0.173751 
1189 1 -0.129715 0.0119766 -0.181873 0.223713 
201 1 -0.0420171 0.000539662 -0.0375159 0.0563309 
380 1 -0.00855767 0.0868604 -0.104027 0.135793 
1777 1 -0.0250854 -0.0148615 -0.0639645 0.0702965 
2597 1 0.176113 0.0276024 0.0745111 0.193209 
2484 1 0.170538 -0.0351109 0.0492692 0.180951 
308 1 0.0365565 -0.0134317 -0.0882084 0.0964236 
3918 2 -0.000189489 0.180764 0.102313 0.207711 
89 1 -0.111823 0.0204068 0.0252659 0.116444 
300 1 -0.0506646 -0.0226799 0.0317776 0.0639617 
3582 2 0.0818813 -0.0374041 -0.0804775 0.120749 
712 1 0.00619429 0.128701 -0.10464 0.165987 
3836 2 -0.0391111 0.109329 -0.0597836 0.130601 
268 1 -0.0344224 0.0133475 0.0853608 0.0930028 
788 1 -0.00215299 0.107031 -0.0410906 0.114668 
4091 2 -0.0418812 0.114548 -0.015318 0.122922 
371 1 0.00471903 -0.0191838 0.109724 0.111488 
3505 2 0.12892 0.00412389 -0.0108659 0.129443 
266 1 0.121954 -0.0260271 -0.104588 0.162754 
3571 2 -0.00651223 -0.0730623 0.0781119 0.107154 
637 1 -0.0442527 -0.0142095 -0.0790411 0.0916935 
157 1 -0.0738828 -0.0501385 0.0400041 0.0978411 
257 1 -0.0443916 0.00906991 0.0548504 0.0711438 
571 1 0.0150026 0.0287339 0.0623466 0.0702696 
665 1 -0.136736 -0.0607074 0.116124 0.189385 
448 1 -0.196793 -0.151375 -0.00269383 0.248293 
827 1 0.0622386 0.0563541 0.0517179 0.0986112 
3475 2 0.0818569 0.00588157 0.0411205 0.0917935 
73 1 -0.0410948 0.066713 -0.0332504 0.0851175 
373 1 0.0980623 0.0115863 0.0561876 0.113611 
247 1 0.0320461 0.0121038 -0.0828512 0.0896537 
107 1 0.0617993 0.0777348 -0.0797787 0.127383 
675 1 -0.0833902 0.0147051 -0.123166 0.149466 
434 1 0.109769 0.069649 -0.0662757 0.14592 
159 1 -0.0459237 0.0870132 -0.0738421 0.123016 
32 1 0.0498306 0.137476 -0.0370639 0.150852 
3579 2 0.0951164 0.00881433 -0.172028 0.19677 
394 1 -0.0490368 0.00707445 0.0792316 0.0934468 
260 1 0.0389071 0.0160249 0.0586302 0.0721669 
3972 2 -0.0626702 0.0586554 0.0747347 0.113812 
1801 1 -0.0415938 0.0532828 0.00204988 0.0676262 
2122 1 0.0424334 0.0530175 0.200112 0.21132 
1966 1 0.0590788 -0.0438986 -0.0653602 0.0984345 
291 1 -0.0146669 -0.00368542 0.0718865 0.07346 
2047 1 0.085042 0.0414226 -0.0223789 0.0972048 
1899 1 0.0559897 0.068679 -0.00698308 0.0888843 
622 1 0.0151825 0.196314 -0.0275405 0.198817 
1993 1 0.0141521 -0.00979216 0.0359476 0.0398547 
62 1 0.000138664 0.0131153 0.0575791 0.0590541 
2187 1 -0.0670092 0.0670446 -0.0988983 0.136989 
4318 2 0.0964652 0.028524 0.0599387 0.117097 
44 1 0.0448372 0.0650278 0.0898283 0.119617 
824 1 0.0221441 -0.0248513 0.0888175 0.0948499 
1282 1 0.0476826 0.0270351 0.0808464 0.0976763 
3626 2 0.164227 0.101364 -0.0646255 0.203523 
819 1 0.0872188 0.128525 0.0424684 0.161026 
773 1 -0.117956 -0.161185 0.066948 0.210657 
270 1 -0.0621169 -0.0538746 -0.0600262 0.101804 
14 1 -0.153612 -0.0610724 0.0161872 0.166097 
3540 2 0.0568144 -0.133375 0.0466999 0.152307 
997 1 0.0508263 0.057379 -0.118374 0.141025 
4275 2 -0.0373093 -0.0907466 -0.210661 0.23239 
164 1 0.00238401 0.0117537 0.0963301 0.0970738 
234 1 0.00828483 -0.00728032 0.0401354 0.0416232 
1125 1 -0.00990836 -0.0705116 -0.0775142 0.105255 
3985 2 0.0392409 0.0423307 0.0482255 0.0752159 
328 1 0.0125036 0.00568741 -0.0235484 0.027262 
3474 2 0.0730863 0.0057241 -0.0687948 0.100534 
543 1 -0.0196234 -0.0293692 0.0133927 0.0377755 
293 1 0.0823559 -0.0850894 0.129978 0.175832 
3458 2 0.129921 -0.00789449 0.107307 0.168691 
390 1 -0.0222294 0.00356575 -0.139971 0.14177 
3706 2 0.0650824 -0.228562 -0.198996 0.309961 
2169 1 0.097426 0.0525274 -0.101913 0.150457 
1786 1 0.0869971 -0.0260029 0.0189887 0.0927643 
1478 1 -0.0435304 0.0377529 0.0601704 0.0833106 
87 1 0.0201777 -0.00309931 -0.0346583 0.0402237 
4090 2 -0.10068 -0.0379329 0.0237214 0.110173 
142 1 0.0242972 0.0226009 0.00327052 0.0333445 
1650 1 -0.0807443 -0.116354 -0.0114219 0.142085 
153 1 0.105089 -0.057833 0.0144753 0.120822 
374 1 0.0125475 -0.0879683 -0.118171 0.147852 
602 1 0.0173724 -0.0167988 -0.143396 0.145418 
1277 1 -0.0435105 0.0304156 0.0222968 0.0575797 
76 1 0.0418823 0.0223689 0.197306 0.202939 
1370 1 0.0434703 -0.0374475 0.0591634 0.0824153 
221 1 -0.0471593 0.0416617 -0.0371718 0.0730852 
604 1 -0.104206 0.0111465 0.0676408 0.124734 
1161 1 0.00805826 -0.0658509 0.0959411 0.116645 
1718 1 -0.0290345 0.0315588 -0.0890384 0.0988271 
178 1 -0.101995 -0.289533 -0.0196081 0.307599 
295 1 -0.178356 -0.100328 -0.00980055 0.204872 
1472 1 -0.0828465 -0.0186717 -0.0563163 0.1019 
4159 2 -0.000950326 -0.0481909 -0.0161587 0.0508367 
3467 2 0.0598606 0.0291385 -0.0914998 0.113157 
3531 2 -0.100195 -0.0763436 0.138802 0.187439 
2720 1 0.00436963 0.0374328 -0.0795108 0.0879902 
1851 1 -0.0172376 0.00244121 -0.0036682 0.0177919 
732 1 0.0352203 -0.0832506 0.0192959 0.0924309 
446 1 -0.310287 0.0934534 0.102304 0.33982 
3878 2 0.0656812 0.120221 -0.041565 0.14316 
3185 1 -0.150618 0.00124453 -0.0221566 0.152244 
110 1 -0.121896 0.00885407 -0.00385399 0.122278 
2963 1 -0.0164556 0.0693864 -0.0202159 0.0741211 
2608 1 0.00484241 -0.0125346 0.0356224 0.0380726 
3301 1 0.0273183 0.0321134 0.144779 0.150793 
3759 2 -0.0471489 -0.0428749 -0.0339739 0.0722184 
4171 2 -0.117628 0.0247844 0.0987894 0.155595 
2118 1 -0.023268 0.00993947 -0.0858754 0.0895252 
1742 1 0.0100553 0.00583878 0.0377047 0.0394569 
642 1 0.0570877 -0.247904 -0.0148452 0.254825 
3366 1 -0.0597225 0.00638198 0.055817 0.0819941 
144 1 0.0919314 0.0776342 -0.0414554 0.127267 
681 1 -0.0025249 0.00623813 -0.0593465 0.0597268 
1666 1 0.00822845 -0.0496159 -0.0613101 0.0792992 
183 1 -0.0712894 -0.113652 -0.0453567 0.14162 
694 1 -0.102403 0.0308503 0.0698424 0.127734 
444 1 -0.063662 0.025602 -0.127306 0.144621 
869 1 -0.0341296 -0.13776 0.134832 0.195761 
920 1 -0.0853138 -0.158834 0.0958947 0.204212 
53 1 0.107336 0.0057655 0.0456423 0.116779 
1450 1 -0.300506 -0.00168611 -0.0891958 0.313468 
1579 1 -0.00246078 -0.0611139 0.0358307 0.0708858 
51 1 0.0865134 -0.0648681 -0.0327101 0.112971 
4187 2 -0.05707 -0.0764462 -0.139916 0.169344 
1694 1 0.0232026 -0.0813533 0.255771 0.269399 
1590 1 0.0524436 0.00822677 -0.0462489 0.0704058 
2005 1 0.102403 -0.143435 0.127773 0.217683 
736 1 -0.146743 0.0289229 -0.0352317 0.15366 
363 1 0.151094 0.0136287 0.001819 0.151719 
230 1 -0.0359927 -0.0141048 0.141664 0.146843 
2538 1 0.0987359 -0.114268 -0.0361501 0.155283 
357 1 -0.0467955 0.014529 -0.0636136 0.0802969 
3849 2 0.192871 -0.069164 -0.170819 0.266762 
4102 2 0.0318664 -0.138141 0.0619858 0.154728 
1032 1 0.083347 0.0630881 0.0788922 0.130961 
78 1 0.00485997 0.0480514 -0.00946595 0.0492154 
564 1 0.297515 -0.0799289 0.0939213 0.322064 
797 1 0.148279 -0.0632516 0.0218537 0.162681 
1476 1 0.263044 0.0799549 0.00436889 0.274962 
872 1 -0.0504616 0.0229696 -0.0103974 0.05641 
475 1 0.0572746 0.00129739 -0.0118593 0.0585039 
4119 2 0.286049 -0.140107 -0.095347 0.332483 
576 1 -0.0871611 0.0934124 0.0882186 0.155259 
507 1 0.0390935 -0.175902 0.0402782 0.184641 
248 1 0.0362533 -0.0598164 -0.0441623 0.0827201 
3597 2 -0.0586983 0.0407763 0.0648999 0.0965411 
539 1 -0.0214189 -0.0504077 0.0193489 0.0580869 
63 1 0.0641371 -0.0369729 0.13704 0.155758 
57 1 -0.0374622 -0.118369 0.0294311 0.127597 
854 1 -0.0808333 -0.0195921 0.0225955 0.0861883 
668 1 0.0797935 -0.134275 -0.0654533 0.169355 
385 1 -0.0904443 -0.288469 0.141858 0.333943 
752 1 -0.0102983 0.051301 -0.0374857 0.0643663 
3650 2 0.0178991 0.160574 -0.108683 0.194721 
3736 2 -0.086273 -0.202675 0.0779738 0.233667 
254 1 -0.1634 -0.126807 -8.02523e-05 0.206832 
3637 2 -0.0282504 -0.0734538 -0.0177565 0.0806774 
731 1 -0.044621 -0.110755 0.0323843 0.123719 
2304 1 0.0817458 -0.170012 0.0323965 0.191405 
610 1 -0.21927 0.0308827 -0.107635 0.246208 
292 1 -0.139418 0.0286819 -0.0325348 0.146008 
313 1 -0.0791949 -0.0034574 0.00648847 0.0795354 
2133 1 -0.0320666 -0.0747588 -0.05074 0.0958733 
646 1 -0.0941257 -0.0242895 -0.0970157 0.137338 
271 1 0.034148 0.12713 0.0407281 0.137793 
584 1 -0.0460385 0.127635 -0.0472781 0.143685 
3649 2 -0.0858718 -0.029583 0.0666616 0.112663 
1148 1 -0.0356622 0.129818 0.139068 0.193557 
779 1 -0.132846 -0.0870663 0.0690459 0.173193 
621 1 -0.131687 0.0755239 -0.0016206 0.151816 
16 1 -0.0327505 -0.0531231 0.0981192 0.116284 
3635 2 -0.0930779 -0.248907 0.0805461 0.27768 
790 1 0.0984336 0.0140949 0.132379 0.165566 
17 1 -0.0232943 -0.0502836 0.124757 0.136511 