ITEM: TIMESTEP
66
ITEM: NUMBER OF ATOMS
4320
ITEM: BOX BOUNDS pp pp pp
0.0000000000000000e+00 1.9309999999999999e+01
0.0000000000000000e+00 1.9309999999999999e+01
0.0000000000000000e+00 9.6549999999999994e+00
ITEM: ATOMS id type c_displacement[1] c_displacement[2] c_displacement[3] c_displacement[4] 
4012 2 0.0437973 -0.0732344 -0.0488102 0.0983052 
2361 1 -0.0393986 -0.106648 -0.101959 0.152714 
79 1 -0.00391741 -0.0686425 -0.00770052 0.0691841 
781 1 0.0584057 -0.00485431 0.13992 0.151698 
461 1 0.0122332 0.0595572 0.00812738 0.0613414 
3704 2 0.0129257 -0.0995377 0.0168828 0.101783 
629 1 -0.0517308 0.108361 0.0395397 0.126418 
1571 1 0.0200994 -0.0341663 -0.0377997 0.0547735 
58 1 0.0826131 0.124731 0.0751429 0.167419 
2372 1 -0.0593074 -0.0322214 -0.0142834 0.0689899 
372 1 0.0310828 -0.0833621 -0.0124045 0.089829 
3504 2 -0.0398321 -0.0851657 0.0466256 0.104946 
4130 2 0.0622456 -0.0221972 -0.10327 0.122605 
1262 1 0.059057 0.0668875 -0.0520494 0.1033 
907 1 -0.116073 -0.0606408 -0.140131 0.191799 
3659 2 -0.0111517 0.137088 -0.0973448 0.168504 
1298 1 0.0332139 0.0824949 -0.107609 0.139601 
1716 1 0.0565859 0.0569514 -0.0731256 0.108595 
1182 1 0.0447586 0.0302237 -0.0417023 0.0682341 
683 1 -0.014413 -0.0606627 0.0461292 0.0775603 
1958 1 -0.0282662 -0.045015 0.0337373 0.0629566 
1554 1 0.0463247 -0.0897611 -0.0819852 0.130095 
1037 1 0.00682486 -0.12876 0.0181197 0.130208 
749 1 -0.084459 -0.115433 0.02808 0.145762 
3628 2 0.0430393 0.0632443 -0.0141782 0.0778026 
946 1 -0.0788807 -0.0299695 -0.0309262 0.0898708 
2232 1 -0.0485844 -0.133438 -0.0967508 0.171834 
7 1 0.0287973 -0.0264488 0.0416029 0.0570931 
501 1 -0.0111981 0.0146715 -0.0502936 0.0535732 
179 1 -0.0402989 -0.0244067 -0.0105514 0.0482807 
714 1 -0.123527 -0.0132325 0.0890342 0.152843 
4166 2 -0.00701141 -0.0826854 0.0884815 0.121306 
276 1 -0.0315933 -0.0448831 0.107747 0.120922 
767 1 -0.0244891 -0.0288724 0.0193465 0.0425161 
3890 2 -0.185884 -0.0477018 -0.0931228 0.213308 
6 1 0.0227359 0.173296 -0.0183829 0.175745 
2086 1 0.0295299 0.0174649 0.0336167 0.0480325 
224 1 0.117625 -0.0588968 0.00795028 0.131787 
3660 2 0.00549788 -0.0171009 0.0831002 0.0850195 
596 1 -0.0910682 -0.00855356 -0.0116484 0.0922077 
1214 1 0.0494249 -0.0621847 -0.0923522 0.121814 
3686 2 0.00131967 0.00769407 0.0430928 0.0437942 
427 1 -0.118839 0.0626477 0.0917139 0.162662 
350 1 0.02072 0.0693542 -0.0739787 0.1035 
85 1 -0.0327727 0.0548735 0.0765087 0.0996932 
598 1 0.0217174 -0.0994974 0.0914766 0.136892 
3554 2 0.0664407 -0.0349438 -0.0409467 0.0855106 
29 1 -0.16447 0.0644144 -0.0227425 0.178092 
464 1 0.0325171 -0.0030142 -0.131045 0.135053 
3619 2 -0.0747383 0.0404564 0.120512 0.147464 
12 1 -0.0541709 -0.06506 -0.0753852 0.113359 
364 1 -0.147655 -0.0217435 -0.0926887 0.175687 
1849 1 -0.0837989 -0.102434 -0.0885922 0.15926 
3663 2 -0.190297 0.0621906 -0.015854 0.200828 
3517 2 0.0159058 0.00890504 0.13355 0.134789 
25 1 0.219958 0.0208524 -0.0695646 0.231637 
4163 2 0.0237597 -0.0326613 -0.0243131 0.0471425 
399 1 0.0570849 0.0352588 -0.0287098 0.0729802 
4265 2 -0.0579305 0.0719536 0.0897255 0.128779 
527 1 0.00795663 0.073333 -0.0466851 0.0872957 
200 1 0.0708417 0.0434859 0.117563 0.143982 
1951 1 0.133094 0.103719 0.0267959 0.17085 
644 1 0.0286771 -0.0392593 0.0512916 0.0706718 
193 1 0.0497214 0.0863749 0.0618792 0.117311 
550 1 0.0376926 -0.0238782 -0.021879 0.049695 
69 1 0.0237785 -0.0329769 -0.0215456 0.046012 
842 1 -0.0327127 0.037389 -0.036473 0.0616307 
578 1 0.0154271 -0.0346275 0.01406 0.0404319 
172 1 -0.0377183 -0.0341189 0.0321801 0.0601857 
381 1 -0.0297858 -0.0105082 -0.00196423 0.0316461 
3524 2 0.0407801 -0.0615096 0.104825 0.128198 
688 1 -0.0490704 0.112119 -0.00647134 0.122558 
3651 2 -0.0594744 0.0476691 0.0750047 0.106936 
2367 1 0.0373173 0.00263029 -0.0548672 0.0664071 
1244 1 -0.115441 -0.043011 -0.00489043 0.123291 
796 1 -0.0339551 0.1197 -0.0411127 0.131039 
691 1 0.0446573 -0.00569944 -0.00509797 0.0453073 
421 1 0.0820682 0.0561335 0.0315483 0.104314 
597 1 0.00500889 0.0486514 0.0196262 0.0526995 
3617 2 0.0872702 -0.0219892 -0.0313924 0.0953158 
120 1 0.0794687 0.192988 0.10363 0.233021 
769 1 -0.0865382 -0.0433549 0.0407258 0.10501 
2142 1 0.00906184 0.0433461 -0.0300242 0.0535019 
3611 2 0.145584 0.0103019 0.182609 0.233767 
1915 1 -0.00522449 0.0863661 0.0716933 0.112367 
2140 1 0.0360519 -0.0330876 0.0948137 0.106697 
3828 2 0.106533 0.0624675 0.0707792 0.142341 
3204 1 -0.0157872 0.0506002 0.0600676 0.0801107 
175 1 0.111381 -0.0100229 -0.0520869 0.123366 
2011 1 0.169713 0.0866182 0.0128003 0.190969 
75 1 -0.0186909 0.135134 -0.0609694 0.149425 
547 1 0.0105713 -0.0308656 -0.128686 0.132757 
4316 2 -0.0850326 0.0711672 -0.0866007 0.140695 
559 1 0.0162001 0.0306417 -0.0273984 0.0441818 
717 1 -0.00535564 0.076627 -0.0718874 0.105205 
242 1 -0.00947949 -0.0412046 0.102545 0.110919 
3510 2 -0.114197 0.0171393 0.149759 0.18911 
130 1 0.111347 -0.00777043 0.114076 0.159599 
143 1 0.0132891 0.0815485 -0.0574753 0.100649 
202 1 -0.149677 -0.117727 -0.0656971 0.201443 
182 1 -0.143976 0.0586228 0.0288798 0.158113 
84 1 0.0393038 -0.00353471 -0.00269677 0.0395544 
3633 2 -0.0265074 -0.0393642 -0.00682943 0.047946 
35 1 -0.172794 0.0444568 0.133921 0.223089 
3612 2 0.01586 0.0394108 0.0117564 0.0440791 
40 1 0.139273 0.109174 0.0956874 0.201177 
4005 2 0.0744712 -0.0836669 0.0606141 0.127358 
718 1 -0.112892 -0.0158463 -0.0518228 0.125225 
134 1 -0.00692687 0.0239054 0.106526 0.109395 
511 1 -0.0610161 -0.034789 -0.00336216 0.0703174 
757 1 -0.00304156 0.174537 0.00504033 0.174636 
3555 2 -0.0719779 0.0968118 0.0605663 0.134988 
3481 2 -0.0192534 -0.0300043 -0.0402817 0.0537919 
135 1 -0.00733459 -0.0436461 -0.0974123 0.106995 
369 1 0.103634 -0.0437827 0.0303642 0.116529 
2148 1 -0.0927216 -0.0672101 0.0727988 0.135699 
3462 2 0.0561675 -0.0618511 -0.168839 0.18838 
1914 1 0.00469902 0.0399182 -0.0169767 0.043632 
3661 2 0.100483 -0.143403 0.00111134 0.175107 
1871 1 0.0129398 0.0402333 -0.0425766 0.059991 
320 1 -0.0773165 -0.0628014 -0.0530193 0.11284 
582 1 -0.0589643 -0.0968362 -0.0546646 0.125866 
766 1 -0.0195996 0.0195256 -0.0217693 0.0352036 
3552 2 0.0387932 -0.00347581 -0.0149509 0.0417195 
2290 1 -0.0257792 0.0516043 0.0265674 0.063509 
1794 1 -0.0325069 0.0960842 0.087175 0.133747 
753 1 -0.0300963 0.0330491 0.0605137 0.0752326 
396 1 0.0221984 -0.0071786 0.169873 0.171468 
496 1 0.00705775 -0.0368897 -0.0940965 0.101315 
480 1 -0.0430949 -0.069098 0.0977393 0.127219 
253 1 0.0540327 -0.0088213 -0.0519151 0.0754488 
4033 2 -0.00851656 0.0122847 -0.0656701 0.0673499 
347 1 -0.0225733 0.00678276 -0.0875255 0.0906437 
586 1 -0.108276 0.0422297 -0.106347 0.157533 
3671 2 -0.00743495 0.0226847 -0.0419485 0.0482655 
37 1 0.0614154 -0.161142 -0.0293855 0.174935 
782 1 0.03151 -0.145033 -0.0600765 0.160114 
481 1 0.10287 -0.0563024 -0.0742359 0.138791 
392 1 -0.0205559 0.0317489 -0.0897243 0.0973703 
333 1 0.0404509 -0.029231 -0.0233855 0.0551145 
342 1 -0.0272613 -0.0597592 -0.0500473 0.0825777 
1179 1 0.0135706 -0.0688416 -0.0658022 0.0961939 
517 1 0.0294343 -0.0979364 -0.0274943 0.105896 
1824 1 0.0323804 -0.05321 0.0805474 0.101822 
34 1 0.117535 -0.0151674 0.0398344 0.125025 
398 1 -0.0160323 -0.0643964 -0.0826691 0.10601 
170 1 -0.0674267 -0.063689 -0.0513251 0.106004 
235 1 0.052032 -0.079294 0.0956718 0.134714 
3852 2 -0.0486275 0.00957463 -0.014693 0.0516933 
816 1 0.0465387 -0.0517629 -0.112864 0.132603 
3931 2 -0.161811 -0.12772 0.0753342 0.219477 
274 1 -0.018804 -0.0655989 -0.0367521 0.0775082 
30 1 -0.0170767 -0.0564778 -0.037366 0.0698397 
2066 1 0.0886062 -0.0340586 0.154386 0.181235 
1082 1 -0.0292985 -0.147348 0.127216 0.196859 
1372 1 0.0077408 -0.0552834 0.107493 0.121123 
1265 1 0.0565309 -0.0310981 -0.0637699 0.0907163 
601 1 -0.0431279 0.0732642 0.00875296 0.085465 
540 1 -0.0516738 -0.0971802 -0.0207127 0.111996 
589 1 -0.0397613 0.13802 0.138097 0.199252 
958 1 0.140581 -0.0203548 0.0473218 0.149722 
504 1 -0.0785605 0.0709639 -0.0368479 0.112095 
1349 1 -0.139542 -0.00722552 -0.0552485 0.150255 
9 1 0.0331453 -0.12901 -0.00105583 0.133204 
149 1 -0.0200428 0.0474014 -0.0130315 0.0530889 
163 1 0.000405744 -0.211158 0.0679413 0.22182 
4247 2 0.0366135 -0.0951009 -0.0625432 0.119567 
1584 1 0.176176 -0.00984212 -0.070171 0.189892 
3570 2 -0.0418442 -0.107854 -0.0483003 0.125365 
237 1 0.0113772 0.0676373 0.110578 0.130122 
490 1 0.0292258 -0.103915 -0.0155398 0.10906 
50 1 -0.00831045 0.00647 0.0147976 0.018163 
152 1 0.101001 -0.00484994 -0.141723 0.174098 
3652 2 -0.0695784 -0.0488997 -0.00757754 0.0853801 
3823 2 0.0838315 0.0921116 -0.156135 0.199726 
902 1 0.00974983 0.0623604 -0.000950783 0.0631251 
3574 2 -0.0273839 0.0550692 -0.0435213 0.0753432 
770 1 -0.0153923 -0.0565515 -0.0668158 0.0888783 
154 1 -0.0579242 -0.0614957 -0.00475755 0.0846142 
116 1 0.0935279 -0.0522491 0.0900733 0.139967 
710 1 -0.0900496 -0.164784 -0.100803 0.213129 
1956 1 -0.061049 -0.00430142 0.00417022 0.0613423 
1810 1 -0.109743 -0.0167864 0.0360735 0.116733 
2072 1 -0.0630562 -0.0353747 -0.0189764 0.07475 
1649 1 -0.066028 0.0178778 -0.10932 0.128958 
186 1 -0.0696073 0.0842377 0.0684775 0.128959 
1063 1 -0.14002 0.150452 -0.155812 0.257913 
432 1 -0.177608 0.0539441 -0.142749 0.234162 
2495 1 0.00095839 -0.101823 0.042256 0.110247 
3896 2 -0.0235297 -0.0180862 -0.10575 0.109835 
4115 2 0.073575 -0.008343 -0.0379926 0.0832245 
913 1 0.048051 -0.0135579 -0.000222343 0.0499276 
1068 1 -0.071347 0.0135537 -0.0460406 0.0859874 
265 1 -0.0904702 -0.0345085 -0.0681553 0.11841 
1287 1 0.0327173 0.0854835 0.0192288 0.0935286 
3799 2 0.117136 -0.0871992 -0.133843 0.198087 
554 1 0.105417 -0.0740774 0.00598088 0.12898 
1414 1 0.00216596 0.0611818 -0.0599172 0.085662 
213 1 0.0116045 0.00947724 0.0573531 0.0592779 
341 1 -0.113949 -0.0402469 -0.0203124 0.122543 
3682 2 -0.00365426 0.0855474 -0.0601969 0.104668 
754 1 -0.0832973 0.018711 0.0369326 0.0930192 
112 1 -0.0420289 0.0393926 0.00174626 0.0576303 
1041 1 -0.0127693 -0.00732537 0.00367922 0.0151741 
119 1 0.0352477 0.0788641 0.00232652 0.0864139 
415 1 -0.069664 -0.00814694 -0.0533423 0.0881183 
995 1 -0.0653018 0.047245 0.0144371 0.0818831 
4128 2 0.0550103 -0.0234668 0.208475 0.216884 
8 1 0.0168805 0.0734601 0.0112916 0.0762158 
94 1 0.0473389 0.000849853 -0.0144979 0.0495165 
48 1 0.0560435 -0.0092409 0.0764791 0.0952645 
437 1 0.0324718 -0.0513146 -0.0545012 0.0815965 
3866 2 0.0689587 0.0145375 -0.050649 0.0867868 
2206 1 0.0214296 0.0122087 -0.013006 0.0278825 
3490 2 -0.0798108 0.0207594 -0.0665066 0.105943 
3072 1 -0.0369896 -0.0998305 0.0514152 0.118228 
3002 1 0.0872614 0.100575 0.0145862 0.13395 
92 1 0.0436674 0.0955448 0.0815901 0.133013 
335 1 -0.00368729 0.0627922 -0.0300917 0.0697278 
2192 1 -0.00891586 0.0258236 0.113097 0.11635 
1186 1 0.0380065 -0.0311692 -0.0258101 0.0555173 
1114 1 0.0514755 -0.042484 0.0228895 0.0705589 
1821 1 -0.0902438 -0.0773342 -0.060153 0.133203 
1922 1 0.0604399 -0.0883345 0.0568142 0.121177 
451 1 -0.118311 -0.0289077 -0.0141606 0.122612 
3960 2 -0.0112703 -0.038898 0.0457455 0.061096 
100 1 -0.0465043 0.00119199 -0.074802 0.0880875 
1180 1 0.0364915 -0.0518583 -0.101662 0.119817 
165 1 0.0708973 -0.0196812 -0.0234932 0.0772379 
388 1 -0.0672165 -0.0219371 -0.0853914 0.110865 
3742 2 0.0421387 -0.057273 0.014074 0.0724841 
323 1 -0.127836 0.133932 0.00191349 0.185158 
288 1 -0.102422 0.020452 -0.0196219 0.106271 
3942 2 -0.099177 0.0995941 0.108134 0.177336 
66 1 0.0617839 0.0223353 0.0719461 0.0974287 
340 1 0.0605495 0.0593048 -0.0434467 0.0952414 
138 1 -0.0167584 -0.0120532 0.0325569 0.0385496 
879 1 -0.0321842 -0.0418592 -0.0624337 0.0817678 
3808 2 0.0746148 0.144664 -0.0362837 0.166768 
834 1 0.0532619 0.0273388 0.00461456 0.0600461 
18 1 -0.0778276 -0.0634643 -0.0892641 0.134361 
3679 2 0.0846438 -0.0517679 -0.0655049 0.118892 
52 1 0.0234121 -0.118362 0.0117643 0.121228 
407 1 0.0228524 0.0504184 -0.0709945 0.0900248 
360 1 0.0715973 -0.0348526 -0.0652841 0.10297 
2885 1 -0.076819 -0.0125131 -0.00711444 0.0781559 
3526 2 -0.0433097 -0.232041 -0.0400621 0.239424 
310 1 -0.0896454 -0.0447185 -0.0383292 0.107262 
326 1 0.119172 -0.0232571 0.0832021 0.147192 
227 1 -0.0416331 -0.0591599 -0.0549172 0.0908246 
2068 1 -0.131423 -0.00909417 -0.144546 0.195572 
456 1 0.0738783 -0.0163409 0.0508365 0.0911558 
279 1 0.00666385 0.0432828 0.137173 0.143994 
305 1 0.0107081 0.0437658 -0.0373616 0.0585321 
49 1 0.00404085 0.0803623 0.0432125 0.0913332 
3512 2 0.0279747 -0.13782 0.0338069 0.144637 
11 1 -0.0798816 -0.188594 0.0145907 0.205333 
189 1 -0.1082 0.114366 0.0352664 0.16134 
2271 1 -0.1073 -0.0675126 -0.0344634 0.131374 
319 1 -0.120498 -0.0607017 0.0111029 0.13538 
3566 2 0.0446816 0.0478372 -0.065247 0.092423 
71 1 0.0359466 -0.00490863 0.0594068 0.069609 
1560 1 -0.0337656 0.0126958 0.055712 0.0663712 
190 1 -0.0718961 0.00924284 0.114936 0.135885 
123 1 0.083156 -0.00421667 0.107009 0.135586 
27 1 -0.0290885 -0.0227109 -0.0132402 0.0392075 
162 1 0.0131947 0.0440954 -0.0824759 0.0944499 
255 1 -0.12391 -0.00866078 -0.00874635 0.124519 
304 1 -0.0675761 -0.0109629 -0.0802772 0.105504 
321 1 0.01863 -0.038332 0.142838 0.149061 
682 1 -0.100835 0.00873692 0.00630956 0.101409 
3469 2 0.0218282 0.00784092 -0.0807359 0.0840014 
3539 2 0.0158619 0.00932742 0.113014 0.114502 
128 1 0.0411534 -0.0797669 -0.0966865 0.131927 
3562 2 0.110765 0.0168575 0.140531 0.179728 
560 1 -0.179286 -0.0570775 -0.0628471 0.198371 
212 1 -0.0347606 0.0632529 -0.0704901 0.100886 
355 1 0.0134782 0.0470739 0.0779588 0.0920607 
156 1 0.00581957 0.080172 0.0541549 0.0969235 
3620 2 0.0632355 -0.0725976 -0.00163962 0.0962903 
1823 1 0.211976 -0.157583 -0.0893551 0.278838 
1805 1 -0.138152 0.038632 0.0969396 0.173135 
2599 1 -0.0830062 0.041617 0.100484 0.136818 
327 1 0.108391 0.0246374 0.043837 0.119488 
137 1 0.074842 0.0431254 -0.00553916 0.0865552 
2334 1 0.00665417 0.0163577 0.0336973 0.0380442 
3698 2 0.0217929 -0.0596469 -0.014496 0.0651369 
555 1 -0.0315289 -0.0466882 -0.0390004 0.0685193 
4178 2 -0.01713 -0.0824384 0.045126 0.0955295 
290 1 -0.00154246 0.0024624 -0.0209839 0.0211841 
284 1 0.0298374 0.0314602 -0.0151485 0.0459292 
3543 2 -0.0734782 -0.0593382 0.0111345 0.0951002 
366 1 0.032041 -0.014785 0.100425 0.106444 
55 1 0.0183236 0.051313 -0.00868427 0.0551742 
273 1 -0.0362756 -0.00307763 -0.0810029 0.088808 
3468 2 0.107635 -0.0242282 0.112084 0.157274 
316 1 0.152003 0.0427973 0.120907 0.198884 
81 1 -0.0535303 -0.0384214 0.000245593 0.065892 
322 1 0.0466304 -0.0580075 0.0497571 0.0895267 
239 1 0.0242343 -0.004581 -0.0553878 0.0606308 
734 1 -0.00222754 -0.0566392 -0.0697004 0.0898393 
384 1 0.0455711 -0.0910272 -0.0956442 0.13968 
3476 2 0.00695181 0.0943314 0.0146921 0.0957215 
311 1 -0.049738 -0.0959555 -0.0542503 0.120932 
3471 2 0.0366666 0.0378879 0.0655257 0.0841044 
1938 1 0.0764653 -0.0552538 0.0161405 0.0957102 
139 1 0.178464 -0.00188378 -0.0336802 0.181624 
727 1 0.0926471 -0.108918 0.000526978 0.142992 
1885 1 -0.00697102 0.0430277 -0.0394412 0.0587842 
2184 1 0.196896 0.114319 -0.0624841 0.236096 
2494 1 -0.162254 0.00125948 -0.129898 0.20785 
2091 1 -0.00452457 0.0247364 -0.0676498 0.0721724 
281 1 0.020515 0.103082 0.129476 0.166766 
863 1 -0.0183304 0.0682951 -0.0895567 0.114108 
176 1 -0.0579602 0.0413649 -0.0783739 0.105891 
3710 2 0.00449752 0.0668123 -0.0607068 0.0903849 
3572 2 -0.0286565 -0.118759 -0.103176 0.159907 
4197 2 -0.0480203 0.0764208 -0.0946357 0.130775 
343 1 -0.0558828 -0.0383518 -0.110161 0.129341 
282 1 -0.0559599 -0.0197764 -0.0634911 0.0869122 
1038 1 0.0129165 0.06957 0.075749 0.103657 
408 1 0.196695 -0.0117091 0.00873584 0.197237 
412 1 0.120507 -0.0300304 -0.00533067 0.124307 
820 1 0.131287 0.0351907 0.103186 0.170652 
585 1 -0.0965348 -0.0264741 -0.115996 0.153216 
3609 2 0.0906057 -0.127051 0.0323576 0.159369 
719 1 -0.0142351 0.0346518 -0.0203729 0.0426432 
608 1 0.0529047 0.0861817 0.0807198 0.12939 
106 1 0.0128475 0.0472674 0.0486228 0.0690177 
1047 1 -0.123822 -0.0510467 -0.0396054 0.139665 
3573 2 0.039798 0.0524921 -0.079835 0.103503 
751 1 -0.0108738 -0.0202543 -0.0847431 0.0878059 
259 1 0.0751187 -0.0206596 -0.00822925 0.0783413 
245 1 -0.0614181 -0.041796 0.00126348 0.0743013 
613 1 -0.0569545 -0.0852853 0.0986014 0.142266 
4296 2 -0.0155934 0.0577088 0.0230132 0.0640552 
272 1 -0.107055 -0.135755 -0.0413397 0.177762 
4239 2 -0.125809 -0.0943534 -0.0851821 0.178848 
88 1 0.0854184 0.107646 0.107574 0.174517 
4 1 0.0630906 0.00251054 -0.0696928 0.0940416 
361 1 0.12358 0.0993541 -0.154998 0.221738 
358 1 -0.0618559 0.0153488 0.0465436 0.078918 
194 1 0.0344334 0.041201 -0.10254 0.115748 
2373 1 0.0183242 0.00179576 -0.0931012 0.0949044 
1982 1 0.0509114 0.028998 0.0424689 0.0723634 
3953 2 0.0112318 0.0502739 0.0991389 0.111723 
414 1 0.0241236 0.0327094 -0.11149 0.118667 
3186 1 0.0961456 -0.0573495 -0.0159727 0.113084 
177 1 0.0681347 -0.0538786 0.0104495 0.0874896 
1962 1 -0.0226741 0.0858462 0.155176 0.178783 
706 1 -0.00389641 0.0440382 -0.0264527 0.0515198 
1544 1 0.0217451 -0.139126 0.0748446 0.15947 
4160 2 -0.0252718 0.066925 -0.0323059 0.0784939 
19 1 -0.0648138 0.0626448 -0.103747 0.137436 
3624 2 -0.0367765 -0.0119933 -0.0800806 0.088934 
115 1 0.0653581 -0.036339 -0.0924681 0.118922 
1102 1 -0.0573517 -0.0368479 0.0591721 0.0902681 
2048 1 0.107854 -0.0122944 -0.0113545 0.109145 
649 1 0.0309204 0.103452 -0.0262138 0.11111 
113 1 -0.00383607 -0.0489203 0.0175626 0.0521186 
1150 1 -0.0106354 0.00728348 0.0482153 0.0499087 
620 1 0.0244791 -0.0809552 -0.00975714 0.0851362 
739 1 -0.0252084 -0.040533 -0.0678656 0.0829706 
2412 1 6.46562e-05 0.0250552 -0.0104603 0.0271512 
3746 2 0.105181 0.0297023 -0.174395 0.205813 
1225 1 -0.0193473 0.0283811 0.124137 0.128801 
241 1 0.121932 -0.0248714 0.00427502 0.124517 
83 1 0.0205318 -0.0203669 -0.00924832 0.0303628 
1006 1 0.0528195 0.00639158 -0.00841565 0.0538663 
4046 2 -0.0774469 -0.0936018 -0.0297261 0.125072 
96 1 -0.0246467 -0.153093 0.0460349 0.161753 
411 1 0.122032 0.0476631 0.0667181 0.14702 
2454 1 -0.0655693 0.00674953 0.0506133 0.083106 
404 1 -0.0720148 0.0906082 0.0821704 0.141943 
226 1 0.0398835 -0.0139275 0.0606234 0.0738908 
534 1 0.0534576 -0.0427102 0.122889 0.140654 
3538 2 -0.0579706 0.0717939 -0.0593703 0.109726 
761 1 0.0563818 -0.0421004 0.0704801 0.0995932 
246 1 0.0424023 -0.0389488 0.00850328 0.0582003 
2229 1 -0.0393343 -0.150056 -0.0212915 0.15658 
146 1 0.00499567 -0.098245 -0.062665 0.116636 
3608 2 0.0186213 -0.000531004 0.0196336 0.027065 
503 1 0.00983582 -0.00695558 0.0112818 0.0165046 
505 1 0.13451 -0.0561648 0.0221009 0.147431 
1430 1 -0.0554513 -0.0600435 -0.061884 0.102517 
97 1 -0.0918787 0.0540696 -0.103944 0.148894 
1723 1 0.0313603 -0.000916479 -0.0935954 0.0987138 
3561 2 0.0601522 0.184254 -0.0612435 0.20327 
20 1 -0.0707048 -0.0349163 0.0160675 0.0804766 
263 1 -0.0539378 0.157498 -0.00891923 0.166717 
817 1 0.104503 -0.0826158 0.0196271 0.134653 
1034 1 0.00570719 0.0387027 0.0140147 0.0415558 
353 1 0.0328285 -0.0487706 0.187614 0.196609 
1260 1 0.0484365 0.120034 -0.0472969 0.137809 
998 1 0.0464399 0.117301 -0.0761583 0.147364 
1932 1 0.13396 -0.137995 -0.0441635 0.197328 
36 1 0.104496 -0.17212 -0.0659087 0.21187 
38 1 0.0371255 0.0399322 -0.0259711 0.0603936 
3130 1 -0.059436 -0.0499095 -0.058403 0.0971314 
1973 1 0.0952835 0.0463889 0.141903 0.177108 
307 1 0.074611 -0.0326675 0.00348113 0.0815235 
2714 1 0.0697405 0.0265524 0.0195469 0.0771417 
28 1 0.0859439 0.0481566 -0.00616343 0.0987087 
1937 1 0.00586718 0.0653832 -0.0609623 0.0895867 
562 1 -0.0742668 -0.114438 -0.00947638 0.136754 
3011 1 -0.0324961 0.011099 -0.0168342 0.0382436 
410 1 0.0759371 -0.0978133 0.0440291 0.131425 
693 1 0.0803253 0.0820257 0.188299 0.220538 
367 1 -0.00218792 0.00466686 0.0074106 0.00902683 
318 1 0.0357588 0.0364107 -0.119507 0.129947 
735 1 0.140691 0.0059816 0.0237678 0.14281 
600 1 -0.00423039 0.0311805 0.027732 0.0419426 
3590 2 0.0130842 0.0897551 0.0346324 0.0970906 
3636 2 0.0553849 -0.0756872 0.0452378 0.104127 
26 1 -0.141427 0.0526187 0.074677 0.168366 
1199 1 0.021638 0.073765 -0.0663334 0.101536 
614 1 0.0159863 -0.0106128 -0.0615855 0.0645056 
459 1 -0.0428747 -0.0781098 -0.0641927 0.109818 
3645 2 0.0689613 0.12033 0.0652363 0.153267 
574 1 0.0715877 -0.0694379 0.106032 0.145565 
780 1 0.137225 0.0100646 0.00782743 0.137816 
161 1 -0.115728 -0.0454534 0.0892155 0.15303 
309 1 0.11008 0.0925132 -0.0131442 0.144392 
365 1 0.0508396 -0.150728 -0.0718776 0.174557 
191 1 -0.0752267 0.0954042 -0.00798031 0.121757 
1766 1 -0.071939 -0.00703859 -0.0273469 0.0772827 
2775 1 0.0906595 -0.0523265 -0.0678959 0.124768 
1030 1 0.158581 -0.116255 -0.00889608 0.196831 
1505 1 0.159678 0.173107 0.124281 0.266287 
3872 2 -0.0480669 0.0215008 -0.00110785 0.0526682 
580 1 -0.0334496 -0.0334304 0.0125625 0.0489314 
2054 1 -0.0601473 -0.0898516 -0.0429821 0.116355 
2064 1 0.1057 0.0132855 -0.0381337 0.113151 
529 1 -0.00930808 0.0402255 -0.084454 0.0940064 
402 1 -0.0242847 0.0662888 0.0290026 0.0763223 
124 1 -0.0599285 -0.106391 0.0505996 0.132177 
744 1 0.115103 -0.0156955 0.052628 0.127534 
185 1 0.0639575 -0.0294591 0.0840822 0.109673 
315 1 -0.00627333 -0.034473 -0.0378376 0.0515696 
655 1 -0.00959461 -0.0739963 0.165317 0.181376 
765 1 -0.00486566 0.0490919 0.0263808 0.0559432 
140 1 0.0112141 0.0916855 -0.155626 0.180973 
59 1 -0.0254058 0.000240713 0.0778227 0.081865 
54 1 0.00874748 0.0495905 0.0231182 0.0554093 
3506 2 -0.0363318 0.128943 -0.11531 0.176756 
666 1 -0.00618147 -0.171904 0.06424 0.183619 
43 1 0.0907317 0.0792988 0.0905121 0.150708 
334 1 -0.0576981 -0.0496624 0.0436776 0.0877676 
267 1 0.144665 0.0339251 -0.109138 0.184364 
99 1 0.0754313 0.116929 0.0744516 0.157814 
1189 1 -0.109777 -0.0232866 -0.178926 0.211205 
201 1 -0.0372721 -0.0751543 -0.051579 0.0984773 
380 1 0.00545837 0.118708 -0.159004 0.198503 
1777 1 0.00655328 -0.017662 -0.0537962 0.0569994 
2597 1 0.244503 -0.0222763 0.0287719 0.247195 
2484 1 0.137885 -0.0383897 -0.0439977 0.149739 
308 1 0.00230912 -0.00367547 -0.0680227 0.068161 
3918 2 -0.038247 0.124725 0.0784357 0.152221 
89 1 -0.0972869 0.0507215 -0.0170521 0.111032 
300 1 -0.0157424 -0.00519082 0.0119765 0.02045 
3582 2 0.0449956 0.00199866 -0.0200857 0.0493157 
712 1 -0.0683327 0.0770782 -0.00426098 0.103095 
3836 2 -0.0180836 0.0692979 -0.0587649 0.0926419 
268 1 -0.0220052 -0.0166748 0.0307265 0.0413085 
788 1 -0.0282323 0.119352 -0.079888 0.146369 
4091 2 -0.0113512 0.152706 -0.0137582 0.153744 
371 1 0.0105513 0.0657715 0.123963 0.140727 
3505 2 0.0681739 -0.018386 0.0208482 0.0736232 
266 1 0.130359 -0.0758717 -0.0873362 0.174291 
3571 2 0.00711714 -0.0635419 0.0729637 0.0970151 
637 1 -0.0146642 -0.00223881 -0.0891738 0.0903993 
157 1 -0.0689819 -0.0196614 0.0933431 0.11772 
257 1 0.00969744 0.0109148 0.0143949 0.0205033 
571 1 -0.0189545 0.0466591 0.000926041 0.0503706 
665 1 -0.154781 -0.0339101 0.167433 0.230523 
448 1 -0.137402 -0.100744 0.0205328 0.171611 
827 1 0.0767653 0.0943233 0.0241389 0.123986 
3475 2 0.0892857 0.0450528 0.0599933 0.116623 
73 1 -0.0377307 0.0738393 0.00371335 0.0830038 
373 1 0.102923 0.00114285 0.0970372 0.141459 
247 1 0.0335648 -0.0299675 -0.0624077 0.0769374 
107 1 0.0623771 0.0472532 -0.0622261 0.0999793 
675 1 -0.0648254 0.0713346 -0.108358 0.145026 
434 1 0.0279659 0.0689972 -0.0122544 0.0754511 
159 1 -0.0620747 0.0791467 -0.0289049 0.104656 
32 1 0.0707332 0.115033 0.00231127 0.135059 
3579 2 0.0774818 -0.0504542 -0.0994413 0.135785 
394 1 -0.0599855 0.010285 0.0596709 0.085233 
260 1 -0.0227666 0.068978 0.0246891 0.0767192 
3972 2 -0.0761216 0.0490849 0.0861854 0.125027 
1801 1 -0.0551037 0.0381263 0.0555015 0.0870083 
2122 1 -0.00702276 0.0205638 0.15994 0.16141 
1966 1 -0.00706151 -0.0742877 -0.102982 0.127177 
291 1 -0.0112143 0.0130868 0.0400851 0.043633 
2047 1 0.0886228 0.0422858 0.0453754 0.108171 
1899 1 0.0346987 0.0596053 -0.0043176 0.0691045 
622 1 -0.03528 0.111144 -0.0050802 0.11672 
1993 1 -0.0102191 -0.00960779 0.00515451 0.0149435 
62 1 0.0187196 0.0493881 0.0615375 0.0810954 
2187 1 -0.0644898 0.0207508 -0.107728 0.127259 
4318 2 0.0843503 0.0163106 0.00379678 0.0859967 
44 1 -0.00417789 0.00879426 0.0937022 0.0942067 
824 1 0.0469917 -0.0122193 0.0722588 0.0870567 
1282 1 0.0108289 -0.00330547 0.110918 0.111495 
3626 2 0.13454 0.0886064 -0.031661 0.164178 
819 1 0.0514079 0.0870738 0.074784 0.125767 
773 1 -0.12361 -0.158022 0.0499573 0.206752 
270 1 -0.0482222 -0.0533463 -0.0350727 0.0800081 
14 1 -0.101322 -0.0483244 -0.00932228 0.112642 
3540 2 0.061234 -0.0177507 -0.00622781 0.0640584 
997 1 0.062873 -0.0866455 -0.0547356 0.120235 
4275 2 -0.0360572 -0.0768405 -0.150725 0.172982 
164 1 0.0351991 0.0566734 0.154711 0.168483 
234 1 0.0450635 -0.0170039 0.082369 0.0954175 
1125 1 -0.0170503 -0.00894088 -0.072965 0.0754622 
3985 2 -0.0386474 -0.00867408 0.0489897 0.0629988 
328 1 0.0226913 -0.00400371 -0.0439972 0.0496657 
3474 2 0.015279 0.00269331 -0.0675284 0.0692877 
543 1 -0.0784766 0.00856466 0.00237906 0.0789784 
293 1 0.10488 -0.0719691 0.0960624 0.159397 
3458 2 0.104005 -0.0391609 0.102863 0.151431 
390 1 -0.00766063 -0.0126632 -0.0888889 0.0901126 
3706 2 0.0977246 -0.215144 -0.117043 0.263697 
2169 1 0.084403 0.104802 -0.0537162 0.144889 
1786 1 0.0358745 0.0114481 -0.052169 0.06434 
1478 1 -0.0290413 0.0504129 0.141173 0.152691 
87 1 0.0291274 0.00626812 -0.0465915 0.0553034 
4090 2 -0.0496191 -0.0389577 0.0404071 0.0749166 
142 1 0.00413918 0.0255125 0.0265561 0.0370573 
1650 1 -0.0824751 -0.0852545 -0.0840292 0.145366 
153 1 0.0457677 0.000649807 0.0110605 0.0470897 
374 1 0.0385069 -0.0454099 -0.061912 0.0858949 
602 1 0.0248134 -0.0792515 -0.103482 0.132684 
1277 1 -0.0653397 0.00429716 0.0353003 0.0743899 
76 1 0.0191821 -0.0346717 0.141333 0.146783 
1370 1 0.0603506 -0.0232228 0.0878837 0.10911 
221 1 -0.0193682 0.0861774 -0.0112729 0.0890435 
604 1 -0.0736385 0.0473893 0.0905479 0.125965 
1161 1 -0.0554497 -0.0726536 0.0150197 0.0926218 
1718 1 -0.103263 0.0371898 -0.133361 0.172718 
178 1 -0.0454699 -0.254422 -0.0299536 0.260183 
295 1 -0.157771 -0.0784648 -3.10595e-05 0.176206 
1472 1 -0.099355 -0.00685195 -0.0115053 0.100253 
4159 2 -0.00185899 -0.030135 -0.0245876 0.0389374 
3467 2 0.105966 -0.0163452 -0.0207269 0.109205 
3531 2 -0.0615346 -0.0879116 0.138373 0.175105 
2720 1 -0.0570532 0.0891475 -0.0717298 0.127857 
1851 1 -0.0226774 0.00236681 -0.00478713 0.0232977 
732 1 0.00706576 -0.078797 0.025756 0.0832001 
4009 2 -0.0583439 0.143808 -0.0126024 0.155704 
3878 2 0.0601725 0.0624263 -0.0374422 0.0944441 
3185 1 -0.190723 -0.0161579 0.0270096 0.193303 
110 1 -0.0750563 0.00862757 0.0325503 0.0822643 
2963 1 -0.0469281 0.0194999 -0.0313236 0.0596964 
2608 1 -0.0313584 -0.000923688 -0.0110691 0.0332675 
3301 1 0.0303078 0.015882 0.110121 0.115314 
3759 2 -0.0361612 -0.0548386 -0.0341504 0.0740348 
4171 2 -0.0853902 0.0266663 0.0332082 0.0954221 
2118 1 -0.00518217 0.0634059 -0.0346709 0.0724516 
1742 1 0.00935059 -0.012568 0.044547 0.047221 
642 1 0.0340903 -0.186904 0.0251024 0.191638 
3366 1 -0.0443211 0.0283499 0.0995099 0.112562 
144 1 0.135285 0.16401 0.0201211 0.213556 
681 1 0.0570729 -0.0267295 -0.119877 0.135434 
1666 1 0.0685011 -0.0655485 -0.0331879 0.100451 
183 1 -0.103887 -0.10643 -0.0420906 0.154569 
694 1 -0.15764 0.00672096 0.0665458 0.171243 
444 1 -0.0555354 0.0484256 -0.139672 0.157916 
869 1 -0.0564867 -0.150858 0.140874 0.213996 
920 1 -0.0386576 -0.129052 -0.0103286 0.135113 
53 1 0.0715688 -0.0107772 0.0488957 0.0873444 
1450 1 -0.251544 -0.0344702 -0.0931671 0.270449 
1579 1 0.0720653 -0.105994 0.0630904 0.142859 
51 1 0.125832 0.00774126 -0.0459118 0.13417 
4187 2 -0.112106 -0.0871699 -0.164984 0.217683 
1694 1 0.000301438 -0.128274 0.200109 0.237692 
1590 1 0.0346057 0.0156839 -0.0753982 0.0844301 
2005 1 0.030138 -0.065526 0.126365 0.1455 
736 1 -0.108738 0.0119663 -0.0239444 0.111984 
363 1 0.112294 0.00334427 0.0105678 0.11284 
230 1 0.0129742 0.0248804 0.106011 0.109662 
2538 1 0.0718564 -0.0625542 -0.0428117 0.104447 
357 1 -0.0652374 -0.000479648 -0.0374191 0.0752086 
3849 2 0.166146 -0.0495589 -0.0999077 0.200105 
4102 2 0.00371959 -0.126228 0.0492395 0.135543 
1032 1 0.0716619 0.029833 0.0538281 0.0944611 
78 1 0.00520633 0.0630652 -0.0342812 0.071969 
564 1 0.255534 -0.0592355 0.0969041 0.279637 
797 1 0.154088 -0.0621981 -0.0405135 0.171036 
1476 1 0.221343 0.00912214 -0.0277652 0.223264 
872 1 -0.108345 0.00339531 -0.0905742 0.141258 
475 1 -0.0254891 -0.0420796 0.0146964 0.0513456 
4119 2 0.245892 -0.118134 -0.102478 0.291411 
576 1 -0.153377 0.0222837 0.0592961 0.165943 
507 1 0.0668755 -0.101423 0.0155398 0.122477 
248 1 0.0644584 -0.0425482 -0.0151956 0.0787156 
3597 2 -0.0767302 0.0673283 0.0955052 0.139792 
539 1 0.017199 -0.0130453 0.0646824 0.0681894 
63 1 0.0705315 0.0116884 0.101585 0.124221 
57 1 -0.0446175 -0.0381683 0.0166623 0.0610342 
854 1 -0.0380224 0.0420946 0.0160665 0.0589558 
668 1 0.103426 -0.133642 -0.108011 0.200558 
385 1 -0.0965106 -0.245271 0.0693478 0.272546 
752 1 0.0233467 0.0547654 -0.0127106 0.0608759 
3650 2 -0.0165608 0.153913 -0.0557129 0.164521 
3736 2 -0.0890917 -0.1678 0.022792 0.191347 
254 1 -0.142502 -0.156561 0.0119611 0.21204 
3637 2 -0.00875031 -0.00398705 0.0873551 0.0878827 
731 1 -0.00712089 -0.0300059 -0.0216306 0.0376689 
2304 1 0.100845 -0.130194 -0.0322465 0.167809 
610 1 -0.180104 0.0136218 -0.110536 0.211758 
292 1 -0.137881 0.0160871 0.00602671 0.138947 
313 1 -0.118 0.0114878 0.0341824 0.123387 
2133 1 0.00640004 -0.129667 -0.0241573 0.132053 
646 1 -0.108982 -0.0322959 -0.0866913 0.142952 
271 1 0.0214846 0.103849 0.06155 0.122616 
584 1 -0.0500762 0.108583 -0.0910517 0.150294 
3649 2 -0.0932572 0.0289904 0.0406351 0.105776 
1148 1 -0.0376103 0.122242 0.140484 0.189983 
779 1 -0.0873854 -0.0655262 0.011947 0.109875 
621 1 -0.12489 0.0314489 0.0653951 0.14444 
16 1 -0.0385113 0.0105899 0.136203 0.141938 