ITEM: TIMESTEP
16
ITEM: NUMBER OF ATOMS
4320
ITEM: BOX BOUNDS pp pp pp
0.0000000000000000e+00 1.9309999999999999e+01
0.0000000000000000e+00 1.9309999999999999e+01
0.0000000000000000e+00 9.6549999999999994e+00
ITEM: ATOMS id type c_displacement[1] c_displacement[2] c_displacement[3] c_displacement[4] 
4012 2 -0.0047163 -0.0161993 -0.00477871 0.0175356 
2361 1 -0.00349945 0.0141425 -0.017819 0.0230168 
79 1 -0.0204334 -0.0341286 0.0198311 0.0444472 
781 1 0.0378847 0.00788968 -0.00895123 0.0397192 
461 1 -0.0112111 -0.0268118 -0.00172284 0.0291124 
3704 2 -0.0137612 -0.0213894 0.0239714 0.03495 
629 1 -0.0208265 -0.00451381 0.020952 0.0298848 
1571 1 0.00248664 0.0104579 -0.0204191 0.0230758 
58 1 0.0456568 -0.00270995 0.0800385 0.0921848 
1073 1 -0.0112501 -0.0220148 0.00906019 0.0263307 
372 1 -0.000212692 0.0164659 -0.0160155 0.022971 
3504 2 0.00555347 -0.0412342 0.0157778 0.0444976 
4130 2 -0.0181968 -0.0136726 -0.01306 0.0262417 
1262 1 0.0089197 0.0420486 -0.0381015 0.0574401 
907 1 -0.0333903 -0.0247315 -0.0599353 0.0729302 
3659 2 0.0325941 0.0686979 -0.0407334 0.0862612 
1298 1 0.0380599 0.0315772 -0.0276045 0.0566364 
1716 1 -0.00184968 0.0574926 -0.0210957 0.0612687 
1182 1 -0.0124422 0.00190373 0.015392 0.0198833 
683 1 0.00087643 -0.013525 0.0260119 0.0293311 
1958 1 0.0312176 -0.046258 0.0308682 0.0637745 
1554 1 -0.00208975 -0.0348446 -0.015015 0.0379995 
1037 1 -0.0255254 -0.0829438 0.0105808 0.0874252 
749 1 -0.0475306 -0.00483196 0.0184632 0.0512191 
3628 2 0.0380664 0.0268799 0.0252211 0.0529876 
946 1 -0.0198523 0.0110894 -0.0187933 0.0295005 
2232 1 0.0293073 0.011934 -0.03279 0.0455689 
7 1 0.00426456 -0.01864 -0.00802702 0.0207381 
501 1 0.0195963 0.0626561 -0.0446373 0.079387 
179 1 -0.00791171 -0.00648789 -0.0478466 0.0489284 
714 1 0.00975319 -0.0169596 0.0601537 0.0632552 
4166 2 0.00325285 -0.0201342 -0.0428638 0.0474686 
276 1 -0.0186848 0.0248024 0.0218915 0.0379937 
767 1 -0.0312842 -0.00558502 0.0450116 0.0550994 
3890 2 -0.0588453 -0.012542 -0.0304967 0.0674546 
6 1 -0.0119589 0.0309492 0.0143196 0.0361374 
2086 1 -0.00568362 -0.00325334 0.0251291 0.0259685 
224 1 -0.00983156 -0.00363657 -0.00105214 0.0105352 
3660 2 0.0248598 0.0269858 0.0024867 0.0367753 
596 1 -0.0247954 -0.00510832 -0.023094 0.0342672 
1214 1 -0.00875462 -0.0206962 -0.00345599 0.0227358 
3686 2 0.0221921 0.0181964 0.000858802 0.0287113 
427 1 -0.0171367 0.0330935 0.0258957 0.045381 
350 1 0.00157563 0.0318184 0.0148993 0.0351693 
85 1 -0.0159723 -0.00782721 -0.0129464 0.0219997 
598 1 -0.0241139 -0.00252772 0.0470789 0.0529556 
3554 2 -0.00133928 -0.0188113 -0.00840061 0.0206453 
29 1 -0.00575994 0.0341549 0.0208644 0.0404358 
464 1 -0.0298138 0.0154891 -0.00584063 0.0341012 
3619 2 -0.00474256 0.0123066 0.0345782 0.0370081 
12 1 0.0522549 -0.0819581 0.0440194 0.106702 
364 1 -0.0396258 0.0297375 -0.0113869 0.0508349 
1849 1 -0.056716 -0.00713742 0.0397199 0.0696083 
3663 2 -0.0300693 0.016666 -0.0516131 0.0620148 
3517 2 0.0258291 0.0133958 0.0199837 0.0352978 
25 1 0.0372789 -0.0256906 -0.0004762 0.0452764 
4163 2 -0.021557 0.0162215 -0.0068747 0.0278407 
399 1 -0.00468385 0.00183403 -0.00479539 0.00694967 
4265 2 -0.00456397 0.033748 0.000771007 0.0340639 
527 1 -0.0352095 0.0203214 -0.0148795 0.0432905 
200 1 0.0217617 -0.00524245 0.00215787 0.0224881 
1951 1 0.0349783 0.0164589 -6.30501e-05 0.0386572 
644 1 0.0191624 -0.0190314 0.0338078 0.0432708 
193 1 -0.0143962 0.0431024 -0.0156821 0.0480728 
550 1 -0.00425899 -0.0173104 0.000322587 0.0178295 
69 1 -0.0161505 -0.0384393 0.0302367 0.0515041 
842 1 -0.00860749 0.0202806 -0.0564095 0.0605593 
578 1 -0.0424972 0.0284962 -0.0150165 0.0533248 
172 1 0.00527169 -0.053661 0.00922409 0.0547027 
381 1 -0.0212338 0.0565368 -0.0315028 0.0681154 
3524 2 0.0412816 -0.0448734 0.0275912 0.0669258 
688 1 -0.00237975 0.0300308 0.00862172 0.0313344 
3651 2 0.00407221 0.0304823 -0.00124936 0.0307785 
2367 1 -0.00450452 0.00831351 -0.0126799 0.0158173 
1244 1 -0.0159746 0.0347525 0.0407221 0.0558678 
796 1 -0.0533525 0.0263059 -0.000717847 0.0594896 
691 1 0.0291702 -0.00208475 0.00842028 0.0304327 
421 1 -0.00120757 0.00212499 0.0589657 0.0590163 
597 1 -0.0335929 0.029782 -0.0109607 0.0462124 
3617 2 -0.00125813 0.0105068 -0.0291991 0.0310574 
120 1 0.0147179 -0.00193377 -0.00249904 0.0150532 
769 1 -0.0234592 0.0299869 0.0131686 0.040286 
2142 1 0.00953758 0.00438946 0.00196954 0.0106823 
3611 2 0.0419605 0.0320045 0.0351878 0.0634283 
1915 1 -0.0226468 0.0186875 -0.00861221 0.0305985 
2140 1 -0.0155822 0.00700828 0.0329838 0.0371464 
3828 2 0.0438119 0.0043122 0.0142376 0.0462687 
2192 1 0.0242329 -0.0152758 0.0360656 0.0460577 
175 1 0.0259398 0.0200763 -0.0234149 0.0403012 
2011 1 0.0176692 0.0201868 -0.00787421 0.0279591 
75 1 -0.0173346 0.0181181 0.0316899 0.0404104 
547 1 -0.0298431 0.019031 -0.00945823 0.0366367 
4316 2 0.0133928 0.0163748 0.0116406 0.0241455 
559 1 0.0031487 0.00368791 -0.0257455 0.0261982 
717 1 0.0441799 -0.0140002 0.000206384 0.0463456 
242 1 0.00552148 -0.0028533 0.0257585 0.0264977 
3510 2 -0.0075015 0.00381205 0.00228537 0.00871935 
130 1 -0.00341472 -0.0290238 0.0257404 0.0389437 
143 1 -0.00282952 0.00453324 -0.0131257 0.0141718 
202 1 -0.0411541 -0.00189775 -0.0396064 0.0571483 
182 1 -0.0507301 0.0327317 0.000171604 0.0603733 
84 1 0.00817163 -0.0415797 -0.0260078 0.0497198 
3633 2 0.000623796 -0.0312573 0.0265278 0.0410015 
35 1 -0.0586657 -0.0371764 0.0241665 0.0735376 
3612 2 0.00629132 0.0360391 -0.0545511 0.0656827 
40 1 0.0439256 0.0333769 0.0244245 0.0603327 
4005 2 0.0262035 -0.0314446 0.00790934 0.0416886 
718 1 0.0132562 0.0398532 -0.00200935 0.042048 
134 1 0.00903301 -0.0350456 -0.00486715 0.0365168 
511 1 -0.00905458 -0.0438968 0.0553952 0.0712569 
757 1 0.0254553 0.0643765 -0.00572925 0.0694632 
3555 2 -0.0341598 -0.00514766 0.0016237 0.0345836 
3481 2 -0.00182484 0.0230159 0.00858123 0.0246313 
135 1 0.00704131 -0.0268467 0.00756241 0.0287665 
369 1 0.0219922 -0.0186644 0.0413947 0.0504533 
2148 1 -0.0049291 0.00186491 -0.0196856 0.0203788 
3462 2 0.0246991 -0.0340603 -0.0452266 0.0617705 
1914 1 -0.0265563 -0.0230625 -0.00769643 0.0360048 
3661 2 0.0258469 -0.0249004 0.0119054 0.0378131 
1871 1 0.014549 0.0072606 -0.00775202 0.0180134 
320 1 -0.0211986 -0.017622 -0.0156922 0.03172 
582 1 -0.0220989 -0.0340539 0.0151956 0.0433467 
766 1 -0.0192139 0.00671236 -0.00849886 0.0220558 
3552 2 -0.0030176 -0.0192462 0.00805821 0.0210822 
2290 1 -0.0170089 0.0312055 0.0333543 0.0487401 
1794 1 0.00231264 -0.0191335 0.00623221 0.0202553 
753 1 -0.0433841 0.0134067 -0.0109787 0.0467167 
396 1 -0.0109499 -0.0231683 0.0210781 0.0331807 
496 1 -0.00135145 0.0342672 -0.0213698 0.0404071 
480 1 -0.0133144 -0.0284761 0.0276829 0.0418868 
253 1 0.0210672 -0.000464387 -0.0127363 0.0246223 
4033 2 0.00519118 0.0135814 -0.0123201 0.0190575 
347 1 -0.0256393 -0.00224992 0.0321301 0.0411677 
586 1 -0.00955009 0.00869685 -0.0470227 0.0487645 
3671 2 0.055017 0.00521829 -0.0484845 0.0735177 
37 1 -0.00313245 -0.0124566 0.00857596 0.0154443 
782 1 0.00577468 -0.0167083 -0.00363745 0.0180484 
481 1 0.00816292 -0.00796141 -0.0282651 0.0304784 
392 1 -0.0224239 0.00671165 -0.0469048 0.0524207 
333 1 0.00189857 -0.0184332 -0.0182865 0.0260343 
342 1 0.0108452 0.0181826 -0.0206528 0.0295764 
1179 1 -0.00904361 0.00142886 -0.0149206 0.0175058 
517 1 -0.0136116 -0.00913249 -0.0197017 0.0256288 
1824 1 0.0235292 -0.0172697 0.054971 0.0622389 
34 1 -0.00988118 0.0146192 0.0231791 0.0291313 
398 1 0.017164 -0.00393912 -0.00703691 0.0189641 
170 1 -0.0299569 -0.0183529 -0.0182088 0.0395703 
235 1 0.00149093 -0.0589592 -0.00248724 0.0590304 
3852 2 -0.00530446 -0.0399145 -0.00429168 0.0404935 
816 1 0.0185352 -0.000415878 0.010632 0.0213721 
3931 2 -0.0249382 -0.0404434 0.047585 0.0672452 
274 1 -0.0199588 -0.0190541 -0.015492 0.0316451 
30 1 0.0239689 0.00188188 -0.0112059 0.0265258 
2066 1 0.0416907 -0.0284815 0.0351519 0.0615221 
1082 1 0.0203354 0.0173357 0.006696 0.027548 
1372 1 0.00098977 -0.00554339 0.0307359 0.0312475 
1265 1 0.0150958 0.00693704 -0.0334104 0.037313 
601 1 0.0325024 0.01785 0.0346189 0.0507296 
540 1 0.0126726 0.0310724 0.0259993 0.0424506 
589 1 -0.00991591 0.0409581 0.00317926 0.0422611 
958 1 0.00989951 0.0130491 -0.0278943 0.0323476 
504 1 -0.0372982 0.0202805 0.00923435 0.043448 
1349 1 0.00659176 0.0394445 0.0142828 0.0424655 
9 1 -0.00352203 -0.0368769 0.0164506 0.0405331 
149 1 0.0139373 0.0215592 0.0240947 0.035208 
163 1 0.0172552 0.0110809 -0.0294635 0.0358974 
4247 2 0.00582374 -0.0132145 -0.0306694 0.0338992 
1584 1 0.0599942 -0.013535 -0.0597643 0.085757 
3570 2 -0.0231128 -0.0182226 -0.00774803 0.0304352 
237 1 0.00852564 0.0122916 -0.00703167 0.0165292 
490 1 -0.00638357 -0.0149123 0.0282294 0.032558 
50 1 -0.0214605 -0.0518564 0.0243556 0.0611787 
152 1 -0.000244268 0.00987321 0.0152754 0.01819 
3652 2 0.0177289 -0.00566586 -0.00526242 0.0193419 
3823 2 -0.0123104 0.025691 -0.0264296 0.0388599 
902 1 0.0147565 0.0336525 -0.0101312 0.0381167 
3574 2 -0.0102105 0.017724 -0.0243459 0.0317981 
770 1 -0.000466762 -0.0275472 -0.000628378 0.0275583 
154 1 0.00968517 0.00423876 -0.0244516 0.0266393 
116 1 0.0333392 -0.0315635 0.00529785 0.0462149 
710 1 -0.0340315 -0.0555805 0.00410758 0.0653009 
1956 1 -0.00999177 0.0306096 -0.0561107 0.0646931 
1810 1 -0.0442973 -0.0117044 0.040408 0.0610906 
2072 1 -0.00564465 -0.0170022 -0.0329308 0.0374883 
1649 1 0.0108505 -0.0109993 -0.0120672 0.0196045 
186 1 -0.0102663 -0.0329505 0.0426886 0.0548949 
1063 1 -0.0107716 0.00620317 -0.0495418 0.0510774 
432 1 -0.0316008 0.0249314 -0.0371605 0.0547822 
2495 1 -0.0419799 -0.0409273 0.0322711 0.0669237 
3896 2 -0.00426446 -0.00691626 -0.0100758 0.0129438 
1071 1 -0.017117 -0.0156262 -0.0232076 0.0327988 
913 1 0.0303197 -0.042465 0.0181275 0.0552374 
1068 1 0.0453452 0.0161709 0.00987501 0.0491446 
265 1 -0.0205178 0.0126504 0.00497232 0.0246117 
1287 1 -0.00442181 0.0465601 -0.0094253 0.0477099 
3799 2 0.000758506 -0.0125373 -0.0257147 0.0286183 
554 1 0.0106831 -0.00258649 -0.032462 0.0342724 
1414 1 -0.0128505 0.0237301 -0.0442016 0.0517883 
213 1 0.00790371 -0.0275018 -0.00488006 0.0290281 
341 1 -0.0242569 -0.0137702 -0.0170306 0.0326811 
3682 2 -0.028138 0.00219049 -0.0325316 0.0430679 
754 1 -0.0155978 0.0668323 -0.0107062 0.0694584 
112 1 -0.0194269 0.0152582 0.00273198 0.0248531 
1041 1 -0.0209969 -0.0648351 0.00063506 0.0681532 
119 1 -0.00593693 -0.0245073 0.0448902 0.0514877 
415 1 0.0192603 0.0144715 -0.0124282 0.027108 
995 1 0.00445443 0.0243396 0.00843683 0.0261426 
4128 2 -0.0230315 -0.0223437 0.0504987 0.0598315 
8 1 0.0374647 0.0335861 -0.00337208 0.0504282 
94 1 -0.0078912 -0.018704 0.0165154 0.02617 
48 1 -0.00984213 0.00148462 -0.00384947 0.0106719 
1270 1 0.0250181 -0.0274707 0.00801437 0.0380102 
3866 2 0.00907717 0.00717459 -0.0066215 0.0133309 
2206 1 0.0147006 -0.0113616 -0.00122012 0.0186194 
3490 2 -0.0210437 -0.0260875 -0.0156004 0.0369699 
3072 1 0.0065159 -0.016542 0.0458735 0.0491983 
3002 1 0.0435878 -0.0254268 0.018283 0.053672 
92 1 -0.00885425 0.0600632 0.0249798 0.0656504 
335 1 -0.0213732 0.0306411 -0.0254432 0.0452001 
4034 2 -0.0514582 -0.0409956 0.0132818 0.0671192 
1186 1 0.0122241 0.00631984 0.00460291 0.0145105 
1114 1 0.0475285 0.0158152 0.00956958 0.0509966 
1821 1 -0.0122766 -0.0182536 -0.0191556 0.0291693 
1922 1 -0.0111707 -0.0400197 -0.010263 0.0427982 
451 1 -0.024023 -0.0210551 -0.00998948 0.0334696 
3960 2 0.00271459 -0.0105059 0.00267113 0.0111749 
100 1 -0.015618 0.0210342 -0.0117513 0.0287132 
1180 1 -0.0127901 -0.0296809 -0.0219204 0.0390519 
165 1 0.0393228 0.00529742 -0.0116717 0.041359 
388 1 -0.032002 -0.0295474 -0.0186294 0.0473733 
3742 2 0.0423011 -0.0163829 0.0261918 0.0523813 
323 1 -0.0260226 0.0358729 -0.051689 0.0680866 
288 1 -0.0180175 0.00289185 0.0140228 0.0230137 
3942 2 -0.0195118 0.0246547 0.0456322 0.0554154 
66 1 0.0142769 0.0225799 0.0186576 0.0325851 
340 1 -0.00393847 -0.0444203 0.0138012 0.0466814 
138 1 -0.0139794 0.0275161 0.00621851 0.0314838 
879 1 0.00291767 0.00285231 -0.0187027 0.0191427 
3808 2 0.0162674 -0.023829 0.00794131 0.0299251 
834 1 -0.023314 0.00590811 0.0113685 0.0266024 
18 1 -0.01576 -0.0246293 -0.0383319 0.0482112 
3679 2 -0.00215555 -0.011182 0.00231799 0.0116214 
52 1 -0.000469059 0.00580638 -0.00625982 0.00855099 
407 1 -0.0410583 -0.00313128 -0.0279677 0.0497773 
360 1 0.0314853 0.00450466 -0.065873 0.0731496 
2885 1 -0.0229436 -0.0280452 -0.020021 0.0413979 
3526 2 0.00132834 -0.0556898 -0.0142479 0.0574989 
310 1 -0.0389794 -0.0034161 0.010397 0.0404866 
326 1 0.0155375 -0.0170852 0.0190394 0.0299302 
227 1 -0.00513912 -0.00295493 0.00212189 0.0062964 
2068 1 -0.0206942 -0.0440917 -0.0584381 0.0760745 
456 1 0.00128208 -0.00156423 0.0112008 0.0113819 
279 1 -0.0206724 0.012976 0.02435 0.0344767 
305 1 -0.0532125 0.00399756 -0.00595518 0.0536937 
49 1 0.0129154 0.0103162 0.0141225 0.0217411 
3512 2 -0.00931639 -0.0428935 0.0280664 0.0520996 
11 1 -0.00846723 -0.0338662 -0.00932688 0.0361332 
189 1 0.00068557 0.0242511 0.0341057 0.0418544 
2271 1 -0.0151231 -0.0160678 -0.0188088 0.028994 
319 1 -0.0354641 -0.0147142 -0.0105982 0.0398313 
3566 2 -0.0164585 0.0187893 -0.010374 0.027047 
71 1 -0.0297844 0.00868855 -0.00436397 0.0313312 
1560 1 -0.0157919 -0.0138581 0.030364 0.0369243 
190 1 0.00907007 -0.0185651 0.00574748 0.0214467 
123 1 0.0239031 0.0117404 0.0221049 0.0346095 
27 1 -0.0211916 0.00160255 -0.0169798 0.0272024 
162 1 -0.00271803 0.000984569 -0.0381416 0.038251 
255 1 -0.034716 0.0112181 -0.0212933 0.0422427 
304 1 -0.0386123 0.00590072 -0.0181652 0.0430778 
321 1 -0.00128455 -0.0380596 0.0573083 0.0688071 
682 1 -0.0253463 0.00556646 -0.00100642 0.0259698 
3469 2 0.0474684 0.0415389 -0.0361909 0.0727221 
3539 2 0.0257112 0.0365192 0.0154786 0.0472684 
128 1 0.0353137 -0.0170417 -0.0031154 0.0393342 
3562 2 0.0482851 0.0169806 0.0133553 0.0528976 
560 1 -0.0333668 -0.0234062 0.015726 0.0436864 
212 1 0.0175893 0.0138857 0.0134765 0.0261498 
355 1 0.00410604 0.0293747 0.0522591 0.0600895 
156 1 0.0475444 0.00990012 0.0233704 0.0538949 
3620 2 -0.0179558 -0.010097 0.0118241 0.0237523 
1823 1 0.057155 -0.0531345 -0.0331168 0.0847743 
1805 1 0.00795428 0.0356854 0.0384609 0.0530656 
2599 1 0.0114068 0.0234221 -0.017511 0.0313902 
327 1 -0.0182302 0.0130285 -0.00943574 0.0243129 
137 1 0.029637 -0.00952004 0.0449111 0.0546442 
2334 1 -0.00517288 0.0203731 0.00623795 0.0219257 
3698 2 0.0115256 -0.0371537 0.0134001 0.0411437 
555 1 0.0162113 -0.0153379 -0.0124843 0.0255718 
4178 2 0.0243587 -0.00158829 0.0107918 0.0266896 
290 1 -0.00289805 0.0311094 -0.0166435 0.0354005 
284 1 -0.0263311 -0.0133777 -0.0313839 0.0430957 
3543 2 0.0245096 0.0013593 0.00807178 0.0258403 
366 1 0.0108802 -0.020756 -0.00588782 0.0241632 
55 1 -0.0110343 0.00360033 0.00200791 0.0117792 
273 1 -0.0095109 -0.0135738 0.00313476 0.0168681 
3468 2 0.0210392 0.00619508 0.0021514 0.0220376 
316 1 0.024727 -0.0292097 0.0505089 0.0633702 
81 1 -0.0380624 0.0227592 0.0257452 0.0512791 
322 1 0.0166892 0.00555408 -0.0179981 0.0251656 
239 1 -0.0173263 0.0105517 -0.0189798 0.0277808 
734 1 -0.0342676 -0.0392298 -0.015461 0.054335 
384 1 0.0377605 -0.012463 -0.00686342 0.0403521 
3476 2 -0.0137318 0.0333964 0.0064095 0.0366738 
311 1 0.0312098 -0.0238738 -0.0228463 0.0454529 
3471 2 -0.022973 0.00786448 -0.0104078 0.0264184 
1938 1 -0.00869138 -0.0183969 -0.0112309 0.0232405 
139 1 0.0475691 -0.0185241 -0.0133266 0.0527595 
727 1 -0.00205215 -0.0116674 0.0153885 0.0194203 
1885 1 0.00433447 0.0281435 -0.0388353 0.0481563 
2184 1 0.0139118 0.0858165 -0.0546314 0.102677 
2494 1 -0.0450886 -0.0415069 -0.0331998 0.0696996 
2091 1 -0.0225231 -0.0140933 -0.0150897 0.030555 
281 1 0.0302073 0.0200382 0.0338493 0.0495963 
863 1 0.000512619 0.0504062 0.0113505 0.0516709 
176 1 -0.0437367 0.0242594 -0.026585 0.0566408 
3710 2 -0.000816973 0.0287862 -0.00846762 0.0300169 
3572 2 0.00401114 -0.0258962 0.000158613 0.0262055 
4197 2 -0.0336476 0.00615686 0.00419411 0.0344624 
343 1 0.00647276 -0.017819 -0.0444309 0.0483065 
282 1 -0.00013928 -0.00527036 0.00559465 0.00768741 
1038 1 -0.00527025 -0.00279848 -0.00757343 0.00964177 
408 1 0.0657478 0.0570786 -0.0166551 0.0886461 
412 1 0.0500727 -0.0239911 -0.000509151 0.0555258 
820 1 0.029406 -0.0018461 -0.00101586 0.0294814 
585 1 -0.0141572 -0.0186054 -0.0201527 0.0308662 
3609 2 0.0303744 -0.0061922 -0.00155148 0.031038 
719 1 -0.0263259 0.0255168 -0.00658753 0.0372499 
608 1 0.00562777 -0.0409235 -0.0105902 0.0426445 
106 1 -0.00227686 0.0319831 0.00723356 0.0328698 
1047 1 -0.0505787 -0.00835938 0.00324464 0.0513675 
3573 2 -0.000253747 0.0080002 -0.0202906 0.0218123 
751 1 -0.0259244 -0.00435137 0.0010884 0.0263096 
259 1 0.0274379 -0.0368637 0.0104856 0.0471351 
245 1 -0.0338702 0.00275877 -0.0374742 0.0505877 
613 1 -0.0171031 0.00417897 0.064975 0.0673181 
4296 2 -0.0136376 0.0117572 0.0130439 0.0222342 
272 1 -0.0324636 -0.0388881 0.0008826 0.050665 
4239 2 0.000305533 -0.0423691 -0.020178 0.0469296 
88 1 0.0215288 0.0428817 0.0204988 0.0521779 
4 1 0.0636987 -1.91586e-05 -0.0232357 0.0678043 
361 1 0.0212477 0.0433724 -0.0567638 0.0745303 
358 1 -0.00318922 -0.0127142 0.0197816 0.0237304 
194 1 0.000148483 0.0128023 -0.030836 0.0333883 
2373 1 -0.00554972 -0.0269047 -0.018801 0.0332887 
1982 1 -0.00741418 -0.0155387 -0.0397415 0.0433105 
3953 2 -0.0157676 0.0100909 0.00692196 0.0199589 
414 1 0.00315984 0.00399307 -0.0126374 0.0136248 
3186 1 0.0246662 -0.0308063 0.0228274 0.045591 
177 1 0.0325069 -0.00697402 0.0432966 0.0545888 
1962 1 -0.0167171 0.0184444 0.0165084 0.0298694 
706 1 0.0238159 -0.00269212 6.03841e-05 0.0239677 
1544 1 -0.0130684 -0.0057953 -0.0107032 0.0178585 
4160 2 -0.00420262 0.00281975 -0.00506567 0.00716059 
19 1 -0.00674752 -0.0378612 -0.0296623 0.048568 
3624 2 0.0114768 -0.018671 -0.0197752 0.0295192 
115 1 0.0573581 -0.0321681 -0.00600694 0.0660365 
1102 1 -0.0419015 0.0113792 -0.0135704 0.0454904 
1492 1 0.0227129 0.0070011 0.021688 0.0321754 
649 1 0.0321677 0.0557655 -0.0274528 0.0699872 
113 1 -0.00378154 0.022039 0.000430439 0.0223653 
1150 1 0.0261642 -0.00981028 0.0158797 0.0321399 
620 1 -0.058546 0.0288542 0.0200703 0.0682863 
739 1 -0.0167392 -0.00766252 0.0116991 0.0218124 
2412 1 -0.000160593 0.0452764 0.00772347 0.0459307 
3746 2 0.0329791 0.00649287 -0.0561575 0.065448 
1225 1 0.0206636 0.0347716 0.0343038 0.0530358 
241 1 0.0211454 0.0361806 -0.00832308 0.0427252 
83 1 0.0170348 0.0327677 -0.0117374 0.0387514 
1006 1 0.00355362 0.0025572 -0.00458872 0.00634222 
4046 2 -0.0607645 0.00150419 -0.0197321 0.0639057 
96 1 0.0261812 -0.0361721 -0.00841616 0.0454391 
411 1 0.0251401 0.0218484 0.0159826 0.0369435 
2454 1 -0.000557199 -0.00685081 -0.0186788 0.0199033 
404 1 -0.00763426 0.0152546 0.0315259 0.035845 
226 1 0.0372317 -0.00401247 0.0391941 0.0542077 
534 1 0.0182817 -0.00544115 0.0384193 0.0428937 
3538 2 0.0154098 0.0189362 0.0142683 0.0282777 
761 1 0.0308725 0.0162357 0.00211789 0.0349456 
246 1 0.0446808 -0.0382891 0.0241122 0.063591 
2229 1 0.0243972 -0.0150751 0.0187287 0.0342527 
146 1 -0.00242755 0.0331779 -0.0108878 0.035003 
3608 2 0.0216674 -0.026414 -0.016541 0.0379576 
503 1 -0.0191652 -0.00229359 0.0221964 0.0294151 
505 1 0.0266838 -0.00594862 -0.0193425 0.0334894 
1430 1 -0.029713 -0.0179343 0.00714981 0.0354347 
97 1 -0.000856546 0.0216288 -0.0117206 0.0246153 
1723 1 0.0154391 -0.0213571 -0.0399589 0.0478665 
3561 2 -0.00371897 0.0315865 0.00118602 0.0318268 
20 1 -0.019292 -0.0391518 -0.0230623 0.0493651 
263 1 -0.0355777 0.0319823 0.0236293 0.0533571 
817 1 0.0341948 -0.0219006 -0.00614165 0.0410687 
1034 1 0.00763352 0.00946305 0.00878002 0.014997 
353 1 0.0202834 -0.0131017 0.0115468 0.0267656 
1260 1 0.0188666 0.0233916 -0.0136135 0.0329915 
998 1 0.00892723 0.0126051 -0.0197529 0.0250751 
1932 1 0.0317663 -0.0372259 0.00432481 0.0491281 
36 1 0.0222674 -0.0312646 0.0289311 0.0480658 
38 1 -0.0311096 -0.0224847 -0.0283554 0.0477221 
3130 1 0.00443401 0.0213295 -0.0167282 0.027467 
1973 1 0.0362934 -0.0385102 0.0587862 0.0790953 
307 1 -0.0207465 -0.0206494 -0.0425623 0.0516562 
2714 1 0.0546843 0.0209538 0.00918084 0.0592766 
28 1 -0.00706326 -0.0169643 -0.0211969 0.0280533 
1937 1 -0.00355072 -0.00301366 -0.0178458 0.0184435 
562 1 -0.0300149 -0.0357449 -0.00258041 0.0467467 
3011 1 -0.0399973 -0.0193689 0.0138447 0.0465469 
410 1 0.0471288 -0.00594742 0.0124566 0.0491087 
693 1 0.0279987 0.052079 -0.00626179 0.0594589 
367 1 -0.0205029 0.0014163 -0.007627 0.0219213 
318 1 0.0487661 0.014528 0.00132826 0.0509014 
735 1 0.0269934 -0.0247191 0.0239278 0.0437289 
600 1 -0.0227361 0.0257185 0.034833 0.0489051 
3590 2 -0.0347237 0.0136413 -0.0558116 0.0671323 
3636 2 0.0236803 -0.0613492 0.0128719 0.0670087 
26 1 -0.0153855 0.0341141 0.0187656 0.0418645 
1199 1 0.0260513 -0.0114458 -0.00889181 0.0298117 
614 1 0.00259514 -0.0225343 -0.00808743 0.0240819 
459 1 0.036225 -0.00139174 -0.0176285 0.0403106 
3645 2 0.0267508 0.0391148 0.0126141 0.0490376 
574 1 0.00436764 0.0321726 -0.0313381 0.0451246 
780 1 0.03677 -0.00790312 -0.00723953 0.0383002 
161 1 0.0106254 0.0435466 -0.026162 0.0519005 
309 1 0.044819 0.0168562 0.00749762 0.0484674 
365 1 -0.0134552 -0.0165806 0.000501816 0.0213591 
191 1 -0.017899 0.0412805 -0.0027649 0.0450788 
1766 1 0.0273191 0.0569092 -0.0224392 0.0669963 
2775 1 -0.0220524 -0.0391296 -0.0168535 0.0479737 
1030 1 -0.0113372 -0.00816829 0.0322139 0.0351139 
1505 1 0.0183724 0.0473565 0.0390049 0.0640434 
3872 2 -0.00260697 0.0216978 -0.00436109 0.0222848 
580 1 -0.0170776 -0.0294066 -0.0219262 0.0404617 
2054 1 -0.0635284 -0.0231883 -0.0266254 0.0726806 
2064 1 0.0161711 0.00170614 -0.0232214 0.0283487 
529 1 0.0106325 0.0116479 -0.0285839 0.0326461 
402 1 0.00684606 0.0258557 -0.0235081 0.0356092 
124 1 0.0112331 -0.0234518 -0.00374023 0.0262709 
744 1 0.00914969 0.0312162 -0.0061203 0.0331002 
185 1 0.0423472 -0.0243234 0.0567709 0.0748855 
315 1 3.55629e-05 -0.025033 -0.0289223 0.0382511 
655 1 -0.0270145 0.0158721 0.0183211 0.0362956 
765 1 -0.0143154 0.0537276 0.0178181 0.0583872 
140 1 0.0119048 0.0243389 0.0185479 0.0328349 
59 1 -0.0159125 -0.0175048 0.0102514 0.0257821 
54 1 0.0124362 0.0156297 0.0581975 0.0615297 
3506 2 0.0260541 0.00952753 -0.00710108 0.0286359 
666 1 -0.0263483 -0.0281937 0.0236276 0.045248 
43 1 0.00616652 0.0733013 0.0178141 0.0756866 
334 1 0.0146266 0.0263264 0.00888133 0.0313989 
267 1 0.0275015 0.0234596 0.0173441 0.0400937 
99 1 0.0392884 -0.0250708 0.0482937 0.0671149 
1189 1 -0.0349081 -0.0307906 -0.047258 0.0663321 
201 1 0.0170416 -0.0145769 -0.0235701 0.0325338 
380 1 0.0257522 0.032878 -0.0438755 0.0605739 
1777 1 0.0192995 -0.0101147 -0.0239507 0.0323792 
2597 1 0.0719063 7.51061e-06 -0.0372374 0.0809762 
2484 1 0.0620392 0.00735318 -0.0348745 0.0715483 
308 1 -0.0335208 -0.0220714 -0.0180596 0.0440107 
3918 2 -0.0118638 0.0227298 -0.0159146 0.0301772 
89 1 -0.0217166 -0.0270586 -0.0225159 0.0413611 
300 1 -0.00265523 0.0215507 -0.0066766 0.022717 
3582 2 0.00930336 0.0625444 -0.00381433 0.0633475 
712 1 -0.0298529 0.0135818 0.0311129 0.045207 
3836 2 -0.000341382 0.00797687 -0.0204491 0.0219525 
268 1 0.0216746 0.0131003 -0.0146731 0.0292696 
788 1 0.0183048 -0.00993605 -0.0387368 0.043981 
4091 2 -0.0140536 0.0324836 0.0422023 0.0550793 
371 1 0.0296533 -0.00835401 -0.0140731 0.0338698 
3505 2 0.00128756 -0.013519 0.0421316 0.0442661 
266 1 -0.0100986 -0.0051167 -0.00500169 0.0123766 
3571 2 -0.0514717 0.0577912 -0.00947447 0.0779675 
637 1 -0.0158915 0.00423235 0.00137175 0.0165025 
157 1 0.0497886 0.00866767 0.000847508 0.0505445 
257 1 0.00344702 0.0281159 0.041572 0.0503052 
571 1 -0.0314534 -0.00783787 -0.032354 0.0457988 
665 1 -0.0237141 0.0261022 0.0402088 0.053483 
448 1 -0.0399817 -0.00313511 0.00522881 0.0404438 
827 1 0.0563037 0.0299084 -0.00265439 0.0638096 
3475 2 -0.015906 -0.0133979 0.0117781 0.0239004 
73 1 -0.00649575 0.0466941 -0.0134037 0.0490122 
373 1 0.00714742 -0.0322475 0.0176941 0.0374709 
247 1 -0.00941033 9.75712e-05 0.00066804 0.00943451 
107 1 0.0160283 0.00390125 0.0211618 0.0268319 
675 1 0.010647 0.0194688 -0.047874 0.0527666 
434 1 -0.000886528 0.025616 0.0168542 0.0306762 
159 1 0.00520435 -0.00229369 -0.0057711 0.00810258 
32 1 -0.000497693 0.02144 -0.00759507 0.0227509 
3579 2 -0.00805976 -0.0426341 -0.00250764 0.0434616 
394 1 -0.0197741 -0.00527661 0.0111989 0.0233296 
260 1 -0.0328629 -0.00525626 0.00880271 0.0344251 
3972 2 -0.0147263 0.0038928 0.0528702 0.0550207 
1801 1 -0.0354283 -0.00565977 0.0275829 0.045255 
2122 1 -0.00386434 0.023992 0.0184448 0.0305084 
1966 1 0.0209234 0.0161091 -0.0233204 0.0352297 
291 1 0.000189326 -0.00878584 0.0142466 0.016739 
2047 1 0.0239329 -0.00527819 0.0117908 0.0271968 
1899 1 -0.0244043 0.083472 0.0114118 0.0877119 
622 1 -0.0383187 -0.00015899 0.00744821 0.0390362 
1993 1 -0.00403386 0.0157625 2.53879e-05 0.0162705 
62 1 0.0306613 0.0228891 0.000240839 0.0382634 
2187 1 0.0261295 0.00321925 -0.0412179 0.0489084 
4318 2 0.015652 -0.0216566 -0.00441109 0.0270823 
44 1 -0.0288934 -0.0353661 0.0134648 0.0476119 
824 1 -0.0285087 -0.00515672 -0.00073487 0.0289807 
1282 1 -0.0273464 -0.0100966 0.0396676 0.0492269 
3626 2 0.00320917 0.0121253 -0.0025281 0.012795 
819 1 0.0252621 -0.00838761 -0.00110847 0.0266412 
773 1 -0.0227234 -0.0272149 0.00624254 0.0359997 
270 1 0.0310086 -0.0353976 0.035332 0.0588462 
14 1 -0.0267292 0.0325384 -0.0255061 0.0492316 
3540 2 0.0187029 -0.0343303 -0.000901249 0.0391048 
997 1 0.0319183 0.019685 0.0217707 0.0433617 
4275 2 -0.00541025 -0.0361357 -0.0230324 0.0431921 
164 1 0.0127181 0.0247773 0.0639023 0.0697078 
234 1 -0.0355783 -0.0254341 0.012693 0.0455392 
1125 1 -0.000992553 0.0422907 -0.0247411 0.0490063 
3985 2 -0.0366548 -0.00681352 0.0328507 0.0496907 
328 1 0.00434274 -0.00367905 -0.0206183 0.0213895 
3474 2 0.00370921 0.0149539 -0.00267701 0.0156379 
543 1 -0.014022 -0.0246005 0.00361262 0.0285456 
293 1 0.016083 -0.0116048 9.23427e-05 0.0198329 
3458 2 0.0222922 -0.0322152 0.014369 0.041728 
390 1 -0.0146658 -0.0314394 0.0282252 0.0447233 
3706 2 0.067003 -0.00763059 -0.0379893 0.0774003 
2169 1 0.022162 -0.000740377 0.016197 0.0274599 
1786 1 -0.0294725 0.0223735 -0.0301404 0.0477247 
1478 1 0.0172017 -0.0128045 0.035233 0.0412458 
87 1 -0.0211471 -0.0206495 0.00136478 0.0295883 
4090 2 -0.00503484 -0.0327878 0.0395999 0.0516579 
142 1 -0.0128715 0.0101254 0.0326096 0.0364909 
1650 1 -0.0308293 -0.00923755 -0.0337051 0.0466027 
153 1 -0.00103395 0.0154236 0.0121961 0.0196901 
374 1 0.00846004 -0.0225272 0.0177976 0.0299299 
602 1 -0.0109546 -0.00460746 0.00294441 0.0122434 
1277 1 -0.026645 -0.00315157 0.0103659 0.0287635 
76 1 -0.0390039 -0.00939941 0.00717451 0.0407569 
1370 1 0.0125597 -0.023889 0.0425519 0.0503894 
221 1 0.0186353 -0.0176721 -0.0382297 0.0460553 
604 1 -1.44541e-05 0.0349281 0.0277928 0.0446364 
1161 1 -0.0235867 0.00254835 0.0430083 0.0491176 
1718 1 -0.0428302 -0.000375196 -0.0189438 0.0468341 
178 1 0.0338352 -0.0404335 -0.00161342 0.0527474 
295 1 -0.0221134 -0.0227725 0.00304353 0.0318882 
1472 1 -0.0297337 -0.0372046 0.0206242 0.0519002 
4159 2 -0.00856412 -0.0263236 -0.0160581 0.0320022 
3467 2 0.0408537 -0.00135765 0.0114812 0.042458 
3531 2 0.035281 0.000590017 0.0566671 0.0667552 
2720 1 -0.0682522 0.0165938 -0.0033009 0.0703179 
1851 1 0.0157893 0.0274736 0.00132814 0.0317154 
732 1 -0.0327437 -0.0317702 0.001011 0.0456346 
4009 2 0.0295639 0.0304647 -0.0157224 0.0452693 
3878 2 0.00284283 0.0046765 -0.00988726 0.0113008 
3185 1 -0.0147739 -0.00809404 -0.00366939 0.0172408 
110 1 -0.0455083 -0.00319772 0.00739312 0.0462157 
2963 1 -0.00511799 0.0150201 -1.26618e-05 0.0158681 
2608 1 -0.0125694 0.00105646 0.00967742 0.0158984 
3301 1 0.00420189 -0.0152864 -0.00202333 0.015982 
3759 2 -0.00906911 0.0287296 -0.0060051 0.0307197 
4171 2 0.0122257 0.00495131 0.00482031 0.0140435 
2118 1 -0.0168465 -0.00782713 -0.0483047 0.0517534 
1742 1 0.0302109 -0.0482478 0.0040684 0.057071 
642 1 0.0227139 -0.0415267 0.0353914 0.0591011 
3366 1 -0.0376596 0.00943359 0.0240468 0.0456671 
144 1 0.0530292 0.0175105 0.00403335 0.0559909 
681 1 0.0245472 -0.0214755 -0.0194735 0.0379865 
1666 1 0.0443017 -0.0141421 -0.0238189 0.0522492 
183 1 -0.0383773 -0.0149567 -0.00595437 0.041617 
694 1 -0.0427148 0.0117229 0.0387125 0.0588272 
444 1 -0.00718555 0.0437118 -0.0285747 0.052715 
869 1 -0.000814722 -0.047126 0.0289881 0.0553339 
920 1 -0.00513515 -0.0286244 -0.0154983 0.0329533 
53 1 0.0168007 0.0033248 0.0112293 0.0204796 
1450 1 -0.0678776 -0.0360173 0.0134689 0.078013 
1579 1 0.0523945 -0.0255964 0.0302629 0.0656978 
51 1 0.0248956 0.00428685 0.0228297 0.0340494 
4187 2 -0.0306052 -0.0128029 -0.0826171 0.0890291 
1694 1 0.014571 -0.0367084 0.00694566 0.0401007 
1590 1 0.0014016 0.0289189 -0.000885935 0.0289664 
2005 1 -0.0148307 0.00672571 0.0798956 0.0815383 
736 1 -0.00868925 -0.015155 -0.0396475 0.0433256 
363 1 0.00541655 -0.00234956 0.0197881 0.0206502 
230 1 0.00259051 0.000170179 0.0756616 0.0757062 
2538 1 -0.0117448 0.0135398 -0.0329983 0.0375521 
357 1 -0.0511695 -0.000690703 0.0113089 0.0524089 
3849 2 0.0433362 0.00638248 0.0326333 0.0546232 
4102 2 0.0423942 -0.0440969 0.0167346 0.0634181 
1032 1 0.0305343 -0.0115268 -0.000334234 0.0326393 
78 1 -0.00166634 -0.00133857 0.000864701 0.00230568 
564 1 0.0234431 -0.00245636 0.0520381 0.0571278 
797 1 0.0571713 -0.0118259 -0.0190496 0.0614109 
1476 1 0.0511103 -0.0155163 -0.0141832 0.0552646 
872 1 -0.028291 -0.0237654 -0.0036216 0.0371254 
475 1 -0.0195802 -0.00575632 -0.00070103 0.0204209 
4119 2 0.0160122 -0.0161651 -0.00731941 0.0239014 
576 1 -0.0523051 0.0232064 0.034644 0.0668922 
507 1 0.0243059 0.00564156 0.0176693 0.0305747 
248 1 0.0499787 -0.0229204 -0.00509111 0.055219 
3597 2 -0.0211956 0.007041 -0.0118142 0.0252666 
539 1 -0.00154756 0.0178517 0.0485826 0.0517817 
63 1 0.0433579 0.00414292 0.000731863 0.0435616 
57 1 -0.0640541 0.00382152 -0.00842065 0.0647182 