ITEM: TIMESTEP
2
ITEM: NUMBER OF ATOMS
4320
ITEM: BOX BOUNDS pp pp pp
0.0000000000000000e+00 1.9309999999999999e+01
0.0000000000000000e+00 1.9309999999999999e+01
0.0000000000000000e+00 9.6549999999999994e+00
ITEM: ATOMS id type c_displacement[1] c_displacement[2] c_displacement[3] c_displacement[4] 
4012 2 -0.00113061 0.000579072 -0.001648 0.00208075 
2361 1 -0.000328422 0.00366492 -0.00215441 0.00426391 
79 1 -0.00108761 -0.00372541 0.00304678 0.00493401 
781 1 0.00594155 0.00286274 -0.00317175 0.00731829 
461 1 -0.00187142 -0.00540064 0.00160353 0.00593636 
3704 2 -0.00281395 -0.00252145 0.00427184 0.00570304 
629 1 -0.00194675 -0.00158859 0.00315905 0.00403646 
1571 1 0.000746345 0.00169205 -0.00357619 0.00402606 
58 1 0.00396601 -0.000704337 0.0104065 0.0111589 
1073 1 -0.00183154 -0.00174034 0.00114896 0.0027755 
372 1 0.00102534 0.00279892 -0.00204624 0.00361557 
3504 2 0.000983737 -0.00561405 0.00185071 0.00599254 
4130 2 -0.00320696 -0.00203147 -0.00127152 0.00400352 
1262 1 -0.000248674 0.00435389 -0.00385369 0.00581972 
907 1 -0.00389121 -0.00204911 -0.00643721 0.00779603 
3659 2 0.00423525 0.00732237 -0.00473061 0.00969191 
1298 1 0.00398421 0.00500358 -0.00204711 0.00671568 
1716 1 -0.000506615 0.00778467 -0.00225615 0.00812083 
1182 1 -0.00200624 0.000316652 0.00236731 0.0031192 
683 1 -0.000612911 -0.00301669 0.0050736 0.00593444 
1958 1 0.00489215 -0.00716456 0.00348298 0.00934854 
1554 1 -0.000418874 -0.00315813 -0.00041611 0.00321284 
1037 1 -0.00336828 -0.00992369 0.00165067 0.0106089 
749 1 -0.00501098 0.00161766 0.00254972 0.00585046 
3628 2 0.00386446 0.00362174 0.00199179 0.00565846 
946 1 -0.00284962 0.00226247 -0.00126215 0.00385125 
2232 1 0.00470551 0.00213251 -0.00277841 0.00586591 
7 1 -0.00109471 -0.00571443 -0.00241464 0.00629949 
501 1 0.00210194 0.00812081 -0.00547986 0.0100197 
179 1 -0.000434226 0.000146973 -0.0042331 0.00425785 
714 1 0.00377953 -0.00152088 0.00785929 0.00885247 
4166 2 0.000359026 -0.00244463 -0.00663877 0.00708367 
276 1 -0.00252608 0.00172579 -0.000605882 0.00311874 
767 1 -0.00303552 -0.000352449 0.00539384 0.00619937 
3890 2 -0.00597722 -0.000952341 -0.00253025 0.00656021 
6 1 -0.00274951 0.00258729 0.00309102 0.00487937 
2086 1 -0.000727502 -0.000516421 0.00348062 0.00359314 
224 1 -0.00170984 -0.000129061 -0.000343119 0.0017487 
3660 2 0.00338194 0.00346694 0.000182271 0.00484669 
596 1 -0.00224387 -0.000398771 -0.00356218 0.00422885 
1214 1 -0.0023322 -0.00205785 0.0010741 0.00329053 
3686 2 0.00259112 0.00238605 -0.00017089 0.00352652 
427 1 -0.000687318 0.00251973 0.00203948 0.00331375 
350 1 5.27628e-05 0.00461728 0.00191264 0.00499802 
85 1 -0.00148452 -2.89028e-05 -0.0019006 0.00241183 
598 1 -0.00358563 8.72182e-05 0.00488919 0.0060637 
3554 2 -0.000293951 -0.00367963 -0.000432849 0.00371664 
29 1 -0.000603526 0.00453303 0.00225896 0.00510054 
464 1 -0.0050431 0.00175372 0.000332224 0.00534965 
3619 2 0.000611616 0.00100993 0.00467277 0.00481963 
12 1 0.00801232 -0.0085392 0.00574108 0.0130413 
364 1 -0.00408015 0.00337397 0.000350068 0.00530602 
1849 1 -0.00220395 0.000614693 0.0052531 0.00572978 
3663 2 -0.0026452 0.00133288 -0.00740567 0.00797606 
3517 2 0.00376472 0.00160201 0.000266894 0.0041001 
25 1 0.00286422 -0.00344392 0.00133612 0.00467435 
4163 2 -0.00338233 0.00261264 -0.000932221 0.00437437 
399 1 -0.000822136 0.000155243 -0.000383219 0.000920253 
4265 2 0.00102702 0.00502558 -0.00105704 0.00523723 
527 1 -0.00690592 0.00561131 -0.00117096 0.00897495 
200 1 -0.000444573 -0.00510203 -0.000627873 0.0051597 
1951 1 0.000782003 0.000340029 -0.00135612 0.00160194 
644 1 0.00169733 -0.00246076 0.00455292 0.00544659 
193 1 -0.00309419 0.0049844 -0.000952621 0.00594355 
550 1 -0.000637581 -0.00248156 0.0012519 0.00285165 
69 1 -0.00340253 -0.00576392 0.00473636 0.00819958 
842 1 0.0018055 0.00287237 -0.00713429 0.0078999 
578 1 -0.00740036 0.00516682 -0.00251873 0.00937045 
172 1 0.000788321 -0.00697895 -4.33731e-05 0.00702347 
381 1 -0.0050282 0.00792724 -0.00286114 0.00981377 
3524 2 0.00542492 -0.00653592 0.0012546 0.00858615 
688 1 0.00244208 0.00223699 0.00268923 0.00426612 
3651 2 0.0014505 0.00414349 -0.000235063 0.00439633 
2367 1 -0.00386532 -0.000237305 -0.0029339 0.00485847 
1244 1 -0.000659162 0.00526131 0.00691105 0.00871082 
796 1 -0.00660179 0.00194159 0.00169935 0.00708811 
691 1 0.00379808 0.000301929 0.00136035 0.00404564 
421 1 -0.000858954 -0.000961192 0.00720768 0.00732204 
597 1 -0.00484466 0.00352296 -0.00115476 0.00610045 
3617 2 -0.000271694 0.000765204 -0.00357425 0.00366532 
120 1 -0.000524506 -0.00296827 -0.00197686 0.00360468 
769 1 -0.00358245 0.0060991 0.000154137 0.00707508 
2142 1 0.00259994 0.00107156 0.00191654 0.0034031 
3611 2 0.00318049 0.00342746 0.00186473 0.00503391 
1915 1 -0.00370622 0.00237633 -0.00148806 0.0046473 
2140 1 -0.00125026 0.00126217 0.0026144 0.0031609 
3828 2 0.00540948 1.44334e-05 0.00171752 0.00567562 
2192 1 0.00346923 -0.00254716 0.00558511 0.00705104 
175 1 0.00210604 0.00146192 -0.00328018 0.00416319 
2011 1 0.000367863 0.00266286 0.000410946 0.00271938 
75 1 -0.00263965 0.000732827 0.0049322 0.00564193 
547 1 -0.00323594 0.0029895 0.000153492 0.00440817 
4316 2 0.00538856 0.00320341 0.00312095 0.00700277 
559 1 -0.000746739 -0.000967131 -0.0029612 0.00320338 
717 1 0.00826187 -0.0042851 0.00194379 0.00950783 
242 1 0.00140793 -0.000125771 0.00222768 0.0026383 
3510 2 0.000285463 7.4603e-05 -0.00206903 0.00208996 
130 1 -0.00411036 -0.00472346 0.000742872 0.00630539 
143 1 0.000500582 -0.00126376 -0.000615815 0.00149228 
202 1 -0.00398552 0.00128465 -0.00669409 0.00789592 
182 1 -0.0061182 0.00505899 0.000748971 0.00797413 
84 1 -0.000248371 -0.00635249 -0.00234869 0.00677732 
3633 2 -0.00134402 -0.00402315 0.00224487 0.00479912 
35 1 -0.00777977 -0.00373275 -0.000662311 0.0086543 
3612 2 0.000649806 0.0061115 -0.00629415 0.00879711 
40 1 0.00419032 0.00386916 0.00295332 0.00642271 
4005 2 0.00368942 -0.00310499 0.00115505 0.00495852 
718 1 0.00306293 0.0068306 0.00184967 0.00771103 
134 1 0.00225852 -0.00528592 -0.00458738 0.00735431 
511 1 -0.000389718 -0.00414387 0.00711478 0.0082428 
757 1 0.00226977 0.00847107 -0.00100588 0.00882738 
3555 2 -0.00431227 -0.00228832 2.47929e-06 0.00488181 
3481 2 0.00263147 0.00459294 0.00513826 0.00737709 
135 1 0.00119014 -0.00310396 0.00121918 0.00354082 
369 1 0.00336894 -0.0025323 0.00366339 0.00558415 
2148 1 0.00202518 0.00245007 -0.00309197 0.00443447 
3462 2 0.00396857 -0.00417277 -0.00408682 0.00706142 
1914 1 -0.00511834 -0.00626185 -0.00227984 0.00840272 
3661 2 0.00301121 -0.00143651 0.00161957 0.00370864 
1871 1 0.0024261 0.000853732 -0.000397121 0.00260241 
320 1 -0.00330261 -0.00262912 -0.00116999 0.00438045 
582 1 -0.005571 -0.00243715 0.00253981 0.00658987 
766 1 -0.00165903 0.000390634 -0.0013286 0.00216105 
3552 2 -0.00106533 -0.000883827 0.000407142 0.00144286 
2290 1 -0.00226424 0.00476665 0.00464327 0.00702906 
1794 1 -0.000531264 -0.00298504 0.00139434 0.0033372 
753 1 -0.00451394 0.00159421 -0.00287175 0.00558248 
396 1 -0.00238772 -0.00340208 0.000329697 0.00416941 
496 1 0.000644923 0.00459485 -0.000745544 0.00469941 
480 1 -0.0011288 -0.0040942 0.00278634 0.0050794 
253 1 0.00230919 -0.000651161 -0.00286414 0.00373626 
4033 2 0.00132881 0.00243443 -0.00148089 0.00314407 
347 1 -0.00221165 -0.00124254 0.0039326 0.00467981 
586 1 0.00197216 -0.000298925 -0.00529639 0.00565955 
3671 2 0.00684063 0.000603649 -0.00612358 0.00920092 
37 1 0.000550221 0.000167469 0.000800618 0.000985788 
782 1 -0.000759109 0.000700375 -0.000358574 0.00109332 
481 1 -0.000821747 -0.00245068 -0.00351499 0.00436306 
392 1 -0.00180293 -0.000825158 -0.00599434 0.00631376 
333 1 -0.00229415 -0.00113882 -0.0034605 0.00430524 
342 1 0.00237255 0.00289014 -0.00265253 0.00458452 
1179 1 -0.00170137 -0.000696991 -0.000186584 0.00184804 
517 1 -0.00270439 0.000231723 -0.00232623 0.00357474 
1824 1 0.0024791 -0.00207291 0.00718654 0.00787967 
34 1 -0.00272759 0.00221786 0.00335803 0.00486159 
398 1 0.00350695 -4.84935e-05 0.000420673 0.00353242 
170 1 -0.00294066 -0.00113725 -0.00214828 0.00381523 
235 1 -9.42762e-05 -0.00696229 -0.00179326 0.00719014 
3852 2 -6.94629e-05 -0.00582237 -0.000564419 0.00585007 
816 1 0.00210135 -0.000384227 0.00314779 0.00380419 
3931 2 -0.00103787 -0.00511505 0.00464233 0.00698514 
274 1 -0.00260237 -0.00217763 -0.00279431 0.00439575 
30 1 0.00356658 -0.000544249 -0.00172498 0.00399903 
2066 1 0.00594035 -0.00428465 0.00315691 0.00797572 
1082 1 0.00342809 0.00366247 -0.000792014 0.00507866 
1372 1 -0.000201341 0.000859091 0.00245394 0.00260775 
1265 1 0.0003095 0.00212362 -0.00311968 0.00378655 
601 1 0.00514798 0.00194646 0.00462107 0.00718642 
540 1 0.00135665 0.0048059 0.00325538 0.0059611 
589 1 4.77578e-05 0.00351433 -0.0024607 0.00429044 
958 1 -0.0010977 0.00282202 -0.0039564 0.00498215 
504 1 -0.00445886 0.00301638 0.00281485 0.00607481 
1349 1 0.00171109 0.00612463 0.00505253 0.008122 
9 1 -0.00108587 -0.00362006 0.00167536 0.0041341 
149 1 0.00172152 0.00215455 0.00451694 0.0052923 
163 1 0.00207795 0.00419142 -0.00461011 0.00656803 
4247 2 0.000652696 -0.00124447 -0.00370438 0.00396196 
1584 1 0.00688239 -0.00306414 -0.00725767 0.0104609 
3570 2 -0.00371619 -0.00143417 -0.0018845 0.00440662 
237 1 0.000962741 0.000342548 -0.00149994 0.00181494 
490 1 0.000665495 -0.000142901 0.00478982 0.00483794 
50 1 -0.00310435 -0.00656445 0.0035242 0.00807149 
152 1 -0.00131721 0.00100746 0.00297143 0.00340286 
3652 2 0.00396352 -5.46201e-05 -0.00145626 0.00422293 
3823 2 -0.00247307 0.00195141 -0.0013218 0.00341632 
902 1 0.00176817 0.00465209 -0.000877302 0.00505351 
3574 2 -0.00173227 0.00133538 -0.00251808 0.00333537 
770 1 0.000363975 -0.00306359 0.000604273 0.00314376 
154 1 0.00203779 0.00149914 -0.00471954 0.00535482 
116 1 0.00321718 -0.00399029 -0.000135862 0.00512748 
710 1 -0.00429945 -0.00669472 0.00150523 0.00809755 
1956 1 -0.00197449 0.0040064 -0.00810243 0.00925198 
1810 1 -0.00302815 -2.80242e-05 0.0032533 0.00444459 
2072 1 0.000125783 -0.0030522 -0.00624235 0.00694972 
1649 1 0.00336251 -0.00231479 -0.00114728 0.0042404 
186 1 -0.000883244 -0.00486483 0.00359197 0.00611137 
1063 1 -0.00147868 -0.000338493 -0.00257674 0.00299009 
432 1 -0.00348343 0.00028883 -0.00443423 0.00564624 
2495 1 -0.00419903 -0.00349828 0.00358726 0.00653745 
3896 2 -0.00146186 -0.00066163 -0.000619524 0.00172006 
1071 1 -0.0023069 -0.000899015 -0.00299201 0.00388357 
913 1 0.00436023 -0.00541526 0.00189411 0.00720585 
1068 1 0.00557967 0.00192472 0.00241374 0.00637679 
265 1 -0.00141435 0.000608791 0.00306162 0.00342703 
1287 1 -0.000423776 0.00426072 -0.00185898 0.00466788 
3799 2 -0.00188455 -0.00075137 -0.00208532 0.0029094 
554 1 -0.000111544 6.23344e-05 -0.00185465 0.00185904 
1414 1 -0.0013128 0.00322857 -0.00589765 0.0068505 
213 1 0.00197228 -0.00364044 -0.000854555 0.00422764 
341 1 -0.00268954 -0.000919312 -0.00190387 0.00342104 
3682 2 -0.00463975 0.000440047 -0.00541437 0.00714398 
754 1 -0.00191746 0.0086272 -0.00211653 0.00908763 
112 1 -0.000785899 0.000871584 -0.00010631 0.00117839 
1041 1 -0.00399315 -0.0092211 -0.000992052 0.0100974 
119 1 -0.000842927 -0.00349059 0.00453211 0.00578228 
415 1 0.00326685 -0.000522254 0.000302955 0.00332217 
995 1 0.00362479 0.00381653 0.000870801 0.0053351 
4128 2 -0.00255294 -0.00278907 0.00652837 0.00754428 
8 1 0.00456873 0.00473461 -4.27389e-05 0.00657965 
94 1 -0.0018741 0.000155878 0.00385884 0.00429269 
48 1 -0.00260469 -0.000766995 -0.00100581 0.00289557 
1270 1 0.00361306 -0.00385857 0.00215441 0.00570826 
3866 2 -2.76436e-05 0.000286493 -0.00116758 0.00120254 
2206 1 0.00243349 -0.0022826 0.000930346 0.00346377 
3490 2 -0.00113039 -0.00533544 -0.00320282 0.00632478 
3072 1 0.000484073 -0.00205921 0.00614199 0.00649605 
3002 1 0.00486017 -0.00602853 0.00264443 0.00818275 
92 1 -0.00237754 0.00606201 0.00211753 0.00684723 
335 1 -0.00101439 0.00264899 -0.00180097 0.00336 
4034 2 -0.00519263 -0.0023753 -0.000648179 0.00574679 
1186 1 0.00188964 0.000375422 0.000199751 0.0019369 
1114 1 0.00591308 1.04084e-05 -0.0001956 0.00591632 
1821 1 -0.00215119 -0.00127817 -0.00106375 0.00271899 
1922 1 -0.00259704 -0.00447481 -0.00374278 0.00638568 
451 1 -0.00108766 -0.00157535 -0.00266833 0.00328401 
3960 2 0.000243232 -0.000853843 -0.000245452 0.000921117 
100 1 -0.00205207 0.00233292 0.000446544 0.00313894 
1180 1 -0.00192678 -0.00426103 -0.00123214 0.00483601 
165 1 0.00334705 0.00121269 -0.00102303 0.00370404 
388 1 -0.00401796 -0.00300045 -0.00309274 0.00589167 
3742 2 0.00622729 -0.00164459 0.00336804 0.00726826 
323 1 -0.00209802 0.00310353 -0.00687654 0.00783073 
288 1 -0.00192852 8.70284e-06 0.00301071 0.00357542 
3942 2 -0.00207023 0.00345078 0.00619321 0.00738577 
66 1 0.00071559 0.00294624 0.001127 0.00323458 
340 1 0.000505871 -0.00765191 0.00225245 0.00799257 
138 1 -0.000591804 0.00491176 -0.00102924 0.00505322 
879 1 -0.000652892 -0.000324625 -0.000250192 0.000770873 
3808 2 0.000804725 -0.00397407 0.00126493 0.00424746 
834 1 -0.00329444 0.000649404 0.000876533 0.00347036 
18 1 -0.000968321 -0.00240295 -0.00300545 0.00396794 
3679 2 -0.00138996 -0.00151395 0.000494842 0.00211397 
52 1 -0.00284145 0.00135829 -0.000308854 0.00316452 
407 1 -0.00454998 0.000509828 -0.000235026 0.00458448 
360 1 0.00534414 0.00254613 -0.00849977 0.010358 
2885 1 -0.000976668 -0.00228739 -0.00289573 0.00381724 
3526 2 0.000322129 -0.00529534 -0.00107767 0.00541348 
310 1 -0.00515424 0.000574237 0.00116857 0.00531615 
326 1 0.000221887 -0.00424849 0.00187469 0.00464902 
227 1 -0.000365673 4.87218e-05 0.00211287 0.00214483 
2068 1 -0.00242763 -0.00573405 -0.00375392 0.00727081 
456 1 -0.000415668 -0.000666211 0.000985808 0.00126033 
279 1 -0.0035592 0.00240859 0.00191335 0.00470427 
305 1 -0.00743279 0.00039952 -0.000555468 0.00746422 
49 1 0.00308185 -0.00155098 0.00109965 0.00362113 
3512 2 -0.00232103 -0.00623972 0.00389696 0.00771412 
11 1 0.00037842 -0.00156233 -0.00182859 0.00243471 
189 1 0.000885859 0.00189741 0.00383011 0.00436516 
2271 1 -6.20582e-05 -0.00166619 -0.0030281 0.00345679 
319 1 -0.00367404 -0.000961352 -0.00217295 0.00437544 
3566 2 -0.00206783 0.00177336 -4.08935e-07 0.0027241 
71 1 -0.00515526 0.000676994 -0.000777382 0.00525731 
1560 1 -0.00264029 7.21533e-05 0.00438638 0.00512022 
190 1 0.00116395 -0.00127539 -0.00079009 0.00189885 
123 1 0.00214461 0.000892144 0.00290816 0.00372192 
27 1 -0.00295693 0.000562054 -0.00249865 0.00391185 
162 1 0.000885389 0.000963466 -0.00397452 0.00418438 
255 1 -0.00397299 0.00185867 -0.00286616 0.00523967 
304 1 -0.00409737 0.000470992 -0.00120739 0.00429745 
321 1 -0.000130846 -0.00365655 0.00499233 0.00618957 
682 1 -0.00512785 -0.00146815 -0.00128405 0.00548626 
3469 2 0.00660453 0.00528993 -0.00388275 0.00931015 
3539 2 0.00481774 0.00582163 0.000441579 0.00756948 
128 1 0.00473783 -0.00272581 0.00125422 0.00560804 
3562 2 0.00569174 0.00139713 0.000242826 0.00586574 
560 1 -0.0026414 -0.00199965 0.00315077 0.00457197 
212 1 0.00281576 0.00117402 0.00172262 0.00350346 
355 1 0.000585463 0.00335447 0.00512268 0.00615118 
156 1 0.00576895 -0.000297657 0.00117658 0.00589523 
3620 2 -0.00300549 -0.00127492 0.00247207 0.00409506 
1823 1 0.00659028 -0.00689382 -0.00313814 0.0100401 
1805 1 0.000787613 0.00365057 0.00331217 0.00499174 
2599 1 0.00395788 0.00562632 -0.00368558 0.00780409 
327 1 -0.0046784 0.0023259 -0.00201668 0.00560037 
137 1 0.00359852 -0.000207879 0.00580137 0.00682997 
2334 1 -0.00072412 0.00232107 -0.000275805 0.00244699 
3698 2 -0.00029471 -0.00340382 0.00180329 0.00386325 
555 1 0.0028823 -0.00109905 -0.00037052 0.0031069 
4178 2 0.00391267 0.00135255 0.000695395 0.00419785 
290 1 -0.000773064 0.00296069 -0.00219749 0.00376726 
284 1 -0.00384246 -0.00273938 -0.00404003 0.00621213 
3543 2 0.00358812 0.000948941 -0.00076544 0.00378959 
366 1 0.000574525 -0.00185538 -0.00257169 0.00322275 
55 1 -7.02983e-05 -0.00106739 0.000727667 0.00129374 
273 1 -0.00173604 0.00120459 0.000437443 0.00215783 
3468 2 0.00233278 -0.000411527 -0.000629246 0.00245095 
316 1 0.00192318 -0.00399366 0.00574787 0.00725851 
81 1 -0.00528621 0.0034406 0.00408492 0.00751455 
322 1 0.0026306 0.00193806 -0.00360205 0.00486322 
239 1 -0.00245328 0.000849264 -0.00119254 0.00285692 
734 1 -0.00413358 -0.00415925 -0.00135499 0.00601846 
384 1 0.00358335 -0.00127469 0.000365989 0.00382088 
3476 2 -0.00285239 0.00274061 0.00156355 0.00425344 
311 1 0.00681015 -0.00385666 -0.00118104 0.00791497 
3471 2 -0.00426789 0.00176937 -0.00233624 0.00517722 
1938 1 -0.00223179 -0.00107235 -0.0020222 0.00319689 
139 1 0.00536849 -0.00174729 -0.00273946 0.00627522 
727 1 -0.00392324 -0.00213976 -0.00161316 0.00475107 
1885 1 0.000524737 0.00407964 -0.00493571 0.00642495 
2184 1 -0.000679921 0.0100056 -0.00618274 0.0117814 
2494 1 -0.00253795 -0.00602661 -0.000166764 0.00654133 
2091 1 -0.00194577 -0.00164444 -0.000827822 0.00267871 
281 1 0.00443195 -0.000698033 0.00200277 0.0049133 
863 1 -0.000264165 0.00453811 0.00144284 0.00476928 
176 1 -0.00507057 0.00162331 -0.00529491 0.00750878 
3710 2 0.000525081 0.00359034 0.000185545 0.00363327 
3572 2 0.000333991 -0.00175911 0.00211132 0.00276834 
4197 2 -0.00409615 0.000189954 0.00163646 0.00441503 
343 1 0.00155799 -0.00223779 -0.00496884 0.00566783 
282 1 -0.000274454 0.00124973 0.000682538 0.00145018 
1038 1 0.000476947 -0.00463442 -0.00253822 0.00530546 
408 1 0.00731493 0.00677043 -0.00180658 0.0101297 
412 1 0.00459283 -0.00298522 0.000700684 0.00552237 
820 1 0.00234685 -0.000305981 -0.000996054 0.00256777 
585 1 -0.000689348 -0.00155331 -0.0022598 0.00282748 
3609 2 0.00537873 0.0011234 -0.000549214 0.00552217 
719 1 -0.00503595 0.00279809 -0.000390791 0.00577432 
608 1 0.00120145 -0.00892407 -0.00189888 0.00920262 
106 1 0.00182257 0.00467829 -0.000666471 0.00506481 
1047 1 -0.00639406 -0.000636196 0.00170976 0.00664921 
3573 2 -0.000415092 0.000746976 -0.00158208 0.00179812 
751 1 -0.00389246 0.000258252 0.00219299 0.00447517 
259 1 0.00369143 -0.004695 0.00110591 0.00607394 
245 1 -0.00380258 0.00117081 -0.00514949 0.0065075 
613 1 -0.00243278 0.000608338 0.00730727 0.00772559 
4296 2 -0.000535389 -6.7921e-05 0.00214363 0.00221052 
272 1 -0.00268422 -0.00424789 8.46068e-05 0.00502561 
4239 2 0.0005986 -0.00364075 -0.00270395 0.00457436 
88 1 0.00218254 0.00501963 0.00128479 0.00562235 
4 1 0.00708533 0.00142017 -0.00252971 0.00765626 
361 1 0.00181101 0.00485327 -0.00665759 0.0084355 
358 1 0.000439202 -0.00152299 0.00633059 0.00652601 
194 1 0.00120128 0.00128308 -0.00326386 0.00370704 
2373 1 -0.0012454 -0.00486809 -0.00113999 0.00515256 
1982 1 -0.00165057 -0.00164661 -0.0075209 0.00787399 
3953 2 -0.00310778 0.00184111 -2.24666e-05 0.00361227 
414 1 -0.000126499 0.000157304 -0.00141096 0.00142533 
3186 1 0.00226491 -0.00253221 0.00399006 0.00524047 
177 1 0.00425194 -0.0015942 0.00414939 0.00615126 
1962 1 -0.00103987 0.00193775 0.00142417 0.00262001 
706 1 0.00289811 0.000366277 0.00180036 0.0034314 
1544 1 -0.000912452 0.00122837 -0.00210558 0.00260287 
4160 2 9.06086e-05 0.00133195 -0.000872083 0.00159463 
19 1 0.000252641 -0.00556003 -0.00193128 0.00589131 
3624 2 0.00253343 -0.00454814 -0.00193983 0.00555579 
115 1 0.00626765 -0.00227184 -0.00232105 0.00705917 
1102 1 -0.00473616 0.00199706 -0.00194686 0.00549633 
1492 1 0.00339847 0.000917623 0.00103474 0.0036691 
649 1 0.00365529 0.00563164 -0.00282888 0.00728553 
113 1 -0.00199975 0.00426681 0.000133511 0.00471407 
1150 1 0.00358519 -0.000895969 0.00111821 0.00386092 
620 1 -0.00805589 0.00392022 0.00264084 0.00934021 
739 1 0.00137361 -0.00109176 -6.62333e-05 0.00175588 
2412 1 -0.000400011 0.00693258 0.00140498 0.00708482 
3746 2 0.00406449 0.000226809 -0.00648145 0.0076538 
1225 1 0.00304373 0.00482215 0.00432903 0.00715946 
241 1 0.000224037 0.00535744 -0.000727953 0.00541131 
83 1 0.00172483 0.00545314 -0.00100615 0.00580724 
1006 1 -0.000493598 0.000370921 -0.000389812 0.000730188 
4046 2 -0.00873661 0.00177484 -0.000701124 0.00894259 
96 1 0.00408368 -0.00420986 -0.000907251 0.00593485 
411 1 0.00354151 0.00227047 0.000291283 0.00421689 
2454 1 0.00228482 -0.00206245 -0.00095991 0.00322421 
404 1 0.00218764 0.00102754 0.0041363 0.00479067 
226 1 0.00515979 0.000897847 0.00489951 0.0071718 
534 1 0.00160189 -0.00129624 0.00294667 0.00359571 
3538 2 0.00187213 0.0023653 0.00274647 0.00407954 
761 1 0.0034209 0.00446576 -0.000581237 0.00565539 
246 1 0.00455936 -0.00427394 0.00364418 0.00723425 
2229 1 0.00490636 0.000230025 0.00242828 0.00547922 
146 1 -6.44898e-05 0.0060231 0.000190517 0.00602646 
3608 2 0.00113211 -0.00487319 -0.00408785 0.00646066 
503 1 -0.00240748 0.000627481 0.00238979 0.00344976 
505 1 0.00212529 4.69806e-05 -0.00450075 0.00497753 
1430 1 -0.00236832 -0.00276455 0.00186424 0.00408988 
97 1 -0.000273197 0.00289615 -0.000917432 0.00305024 
1723 1 0.00174697 -0.00417441 -0.00474552 0.00655726 
3561 2 -0.00293014 0.00205408 0.00155581 0.00390199 
20 1 -0.00131205 -0.00347675 -0.00368857 0.00523592 
263 1 -0.00491163 0.00178484 0.00454722 0.00692726 
817 1 0.00385912 -0.00244229 -0.00166007 0.00485936 
1034 1 0.000726595 0.0016449 0.00119718 0.00216029 
353 1 0.00223127 -0.00318398 -0.00173971 0.00425945 
1260 1 0.000858265 0.000756669 -0.00260546 0.00284562 
998 1 0.00190392 0.00138638 -0.00208149 0.00314317 
1932 1 0.00429609 -0.00311409 0.000898126 0.0053815 
36 1 0.00158163 -0.00286903 0.00395587 0.00513632 
38 1 -0.00450659 -0.00373188 -0.00188727 0.00614801 
3130 1 -0.00063233 0.0014511 -0.00190186 0.00247439 
1973 1 0.00467405 -0.00548087 0.00721479 0.0101951 
307 1 -0.00137134 0.000429102 -0.00344657 0.00373411 
2714 1 0.0074841 0.00244694 0.00156438 0.00802786 
28 1 -0.00234611 -0.00520479 -0.00622951 0.00844991 
1937 1 -0.000609019 -0.00101182 -0.00237928 0.00265625 
562 1 -0.0033951 -0.00304493 -0.000884442 0.00464549 
3011 1 -0.00493353 -0.00325264 0.00215409 0.00628964 
410 1 0.0061454 -0.000458116 0.00163844 0.00637654 
693 1 0.00368335 0.00539818 -0.00284341 0.00712688 
367 1 -0.00308955 3.07229e-05 -0.00129314 0.0033494 
318 1 0.00465706 0.0018563 0.000983182 0.00510889 
735 1 0.00260248 -0.00321228 0.00505141 0.00652751 
600 1 -0.00293685 0.00168244 0.00482316 0.00589224 
3590 2 -0.00269603 0.000257935 -0.00689807 0.0074107 
3636 2 0.00351295 -0.00803089 0.00127257 0.00885751 
26 1 -0.000565957 0.00466453 0.00120739 0.00485139 
1199 1 0.0028329 -0.00212414 -0.000175407 0.00354515 
614 1 0.00362388 -0.00314051 -0.00113728 0.00492836 
459 1 0.00484119 0.00314536 -0.000508234 0.00579557 
3645 2 0.0025379 0.00426405 0.000987049 0.00505938 
574 1 -0.00113748 0.00300857 -0.00605114 0.00685286 
780 1 0.00421969 -0.000968798 -0.00100867 0.00444542 
161 1 0.00259013 0.00651334 -0.00347533 0.0078237 
309 1 0.00418089 0.00169761 0.000104959 0.00451362 
365 1 -0.00295419 0.00172475 -0.00171893 0.00382841 
191 1 -0.00134606 0.00589034 -0.00139458 0.00620103 
1766 1 0.00460899 0.00765194 -0.00162282 0.00907902 
2775 1 -0.00229108 -0.00339823 -0.000992366 0.00421685 
1030 1 -0.0025189 -0.000715517 0.00380373 0.00461792 
1505 1 -0.000350671 0.00572484 0.00429769 0.00716707 
3872 2 -0.00148916 0.00246648 -0.00138459 0.00319659 
580 1 -0.00108483 -0.00383223 -0.00338516 0.00522706 
2054 1 -0.00730795 -0.00190987 -0.00283646 0.00806841 
2064 1 0.00174816 0.000505332 -0.00284447 0.00337675 
529 1 0.00187694 -0.000542955 -0.00317012 0.00372389 
402 1 0.00216511 0.00345436 -0.00352274 0.00538795 
124 1 0.00134163 -0.00227941 -0.00107904 0.00285658 
744 1 -0.0011346 0.00554077 -0.000910349 0.00572854 
185 1 0.00501918 -0.00254012 0.00696828 0.00895551 
315 1 0.00152382 -0.00310715 -0.00412523 0.0053846 
655 1 -0.00305161 0.00349539 -0.000539573 0.00467132 
765 1 -0.00193471 0.00811849 0.00285692 0.00882128 
140 1 0.00137371 0.00267783 0.00534766 0.0061364 
59 1 -0.00147003 -0.00153716 0.00143995 0.00256852 
54 1 0.00256918 0.00250558 0.00928607 0.00995539 
3506 2 0.00476885 0.000946279 -0.000177005 0.00486505 
666 1 -0.00232878 -0.00105734 0.00246956 0.00355526 
43 1 0.000336716 0.00979734 0.000961192 0.00985014 
334 1 0.00174346 0.00307086 0.00295861 0.00460686 
267 1 0.00136116 0.00194793 0.00191126 0.00304961 
99 1 0.00625711 -0.00722248 0.00583022 0.0111941 
1189 1 -0.0035711 -0.00395605 -0.00593087 0.0079736 
201 1 0.00229081 -0.000138143 -0.00290822 0.00370468 
380 1 0.00389525 0.00345967 -0.00450306 0.0068862 
1777 1 0.00362648 -0.00168737 -0.00379311 0.00551237 
2597 1 0.00500832 0.00196199 -0.00499401 0.00733981 
2484 1 0.00868326 0.00464998 -0.00280312 0.010241 
308 1 -0.00406406 -0.00401604 -0.00262969 0.00628971 
3918 2 -0.00112984 0.00357066 -0.00443949 0.0058082 
89 1 -0.00107465 -0.00752512 -0.00281403 0.00810562 
300 1 2.40975e-05 0.00310629 -0.00117619 0.0033216 
3582 2 0.000943964 0.00986398 -0.00257866 0.0102391 
712 1 -0.0027124 0.00136366 0.00307013 0.00431768 
3836 2 0.00038618 0.000442573 -0.00150222 0.00161297 
268 1 0.00348099 0.00327617 -0.00170042 0.00507366 
788 1 0.00276412 -0.00337529 -0.0024488 0.00500295 
4091 2 -0.00202893 0.00199006 0.00711517 0.00766176 
371 1 0.0033502 -0.00119438 -0.00386845 0.00525503 
3505 2 0.000249096 -0.00231216 0.00392634 0.00456336 
266 1 -0.00185553 -0.000101145 0.000363125 0.00189343 
3571 2 -0.00669263 0.00783144 -0.00245473 0.01059 
637 1 -0.00344869 0.000211134 0.00224489 0.00412039 
157 1 0.00625965 0.00501263 0.000672632 0.00804749 
257 1 0.000480566 0.00334707 0.00642903 0.00726404 
571 1 -0.0043644 -0.00175719 -0.00437058 0.00642166 
665 1 3.52716e-05 0.00254994 0.00296649 0.00391197 
448 1 -0.00493883 0.000716867 0.000358891 0.00500347 
827 1 0.00692348 0.00204316 0.00079766 0.0072626 
3475 2 -0.00260446 -0.00158495 0.00140278 0.00335605 
73 1 -0.000454239 0.00489228 -0.00228 0.00541656 
373 1 -0.000674656 -0.00364011 0.00138553 0.00395288 
247 1 -0.00294489 0.00123936 0.00220922 0.00388446 
107 1 0.00106912 0.00043755 0.00188578 0.00221148 
675 1 0.00324353 0.00228557 -0.00577834 0.00700953 
434 1 0.000646369 0.00291332 0.00138156 0.00328845 
159 1 0.00363212 -0.00120303 -0.00094011 0.00393997 
32 1 -0.00150373 0.00178248 -0.00256391 0.00346584 
3579 2 -0.00305688 -0.00545848 0.000895582 0.00631993 
394 1 -0.00331726 -0.00253564 0.000150463 0.00417807 
260 1 -0.00421716 -0.0016443 0.00151062 0.0047718 
3972 2 -0.00197649 -0.000130956 0.00621983 0.00652763 
1801 1 -0.0046 -0.00128966 0.00333304 0.00582515 
2122 1 -0.000768101 0.00346269 0.00115109 0.00372897 
1966 1 0.00274522 0.00442948 -0.00281327 0.00592208 
291 1 0.000591403 -0.0014468 0.00148401 0.00215529 
2047 1 0.00190258 -0.00127475 0.000251444 0.00230391 
1899 1 -0.00382729 0.0106121 0.00110407 0.0113351 
622 1 -0.00539987 -0.000914335 0.00119627 0.00560586 
1993 1 0.000575088 0.00357186 0.000920688 0.00373318 
62 1 0.00474843 0.00299651 -0.000790706 0.00567026 
2187 1 0.00488238 0.000689597 -0.00429332 0.00653803 
4318 2 0.0014516 -0.00154464 -0.000451185 0.00216717 
44 1 -0.00499977 -0.00504997 0.000360361 0.00711546 
824 1 -0.00519715 -0.000298667 -0.00151117 0.00542063 
1282 1 -0.00437426 -0.00352745 0.00411498 0.00696492 
3626 2 -0.0014901 0.000741605 0.000437511 0.00172099 
819 1 0.00348453 -0.00230471 -0.00335961 0.00536102 
773 1 0.000165043 -0.00339322 0.000834312 0.00349817 
270 1 0.00318531 -0.00286668 0.00591908 0.0073075 
14 1 -0.00240407 0.00368095 -0.00202701 0.00484125 
3540 2 0.00199254 -0.00394815 0.000455643 0.00444586 
997 1 0.00126301 0.00491317 0.00493448 0.00707698 
4275 2 -0.000599405 -0.00539663 -0.00239193 0.00593332 
164 1 0.000603258 0.00294703 0.00851144 0.00902738 
234 1 -0.00374233 -0.000532496 0.00110092 0.00393708 
1125 1 -0.000864438 0.00457886 -0.0019315 0.00504419 
3985 2 -0.00444338 -0.00155851 0.00157016 0.00496367 
328 1 -0.000340194 -0.00315117 -0.00203741 0.00376784 
3474 2 -7.25213e-05 0.00225227 -0.000272349 0.00226984 
543 1 0.00127 -0.00361487 0.00192934 0.00428982 
293 1 0.0002908 -0.000518394 -0.00094968 0.00112035 
3458 2 0.00296119 -0.00457852 0.000961223 0.00553674 
390 1 -0.00209988 -0.00400509 0.00492322 0.00668494 
3706 2 0.00772244 -4.83359e-05 -0.00468394 0.00903204 
2169 1 0.000503162 -0.00210573 0.00289204 0.00361264 
1786 1 -0.00448163 0.00285791 -0.0033829 0.00630052 
1478 1 0.00213737 -0.000964607 0.0029995 0.00380734 
87 1 -0.00411553 -0.00308382 0.00119553 0.00527985 
4090 2 -0.000730129 -0.00474768 0.00664727 0.0082012 
142 1 -0.00119307 0.00117073 0.00359737 0.00396675 
1650 1 -0.00293106 -0.00100906 -0.00409166 0.00513332 
153 1 -6.36034e-05 0.00127599 0.00154974 0.00200845 
374 1 -0.000849578 -0.00374831 0.00409508 0.00561616 
602 1 -0.00249636 0.000853851 0.00124639 0.00291794 
1277 1 -0.00293415 -0.00263359 0.00306408 0.00499336 
76 1 -0.0054017 -0.00166948 -0.0013931 0.00582291 
1370 1 -9.35064e-05 -0.0034408 0.00440297 0.00558874 
221 1 0.00340497 -0.00403661 -0.00393029 0.00658295 
604 1 -5.76401e-05 0.00487829 0.00223433 0.00536594 
1161 1 -0.00204805 0.000387383 0.00695912 0.00726456 
1718 1 -0.00428508 0.000640487 -0.000698144 0.00438857 
178 1 0.00442455 -0.00413576 -0.000603573 0.0060865 
295 1 -0.00262898 -0.00298575 -0.000499013 0.0040094 
1472 1 -0.00466305 -0.00472377 0.00180294 0.00687813 
4159 2 -0.00113155 -0.00349616 -0.00169037 0.00404486 
3467 2 0.00376447 0.000594465 0.00101842 0.00394485 
3531 2 0.00456727 0.0016097 0.00724604 0.00871528 
2720 1 -0.0078645 0.000231558 0.00127192 0.00797005 
1851 1 0.00271441 0.00467661 0.000234547 0.00541237 
732 1 -0.00424864 -0.00293458 -0.000250947 0.00516969 
4009 2 0.00278033 0.0012422 -0.00258597 0.00399506 
3878 2 2.36024e-05 0.000322197 -0.00116867 0.0012125 
3185 1 0.0017493 0.00113981 -0.00146733 0.00255191 
110 1 -0.00627437 0.00170614 0.000468686 0.00651907 
2963 1 0.000439838 0.00474351 0.00180824 0.0050955 
2608 1 -0.0012219 -0.00104723 0.00154641 0.00223185 
3301 1 0.00276424 -0.00120218 0.00110141 0.00320926 
3759 2 -0.000471779 0.00352556 -3.52965e-05 0.00355716 
4171 2 0.00416917 -0.00235763 0.00224943 0.00529153 