ITEM: TIMESTEP
30
ITEM: NUMBER OF ATOMS
4320
ITEM: BOX BOUNDS pp pp pp
0.0000000000000000e+00 1.9309999999999999e+01
0.0000000000000000e+00 1.9309999999999999e+01
0.0000000000000000e+00 9.6549999999999994e+00
ITEM: ATOMS id type c_displacement[1] c_displacement[2] c_displacement[3] c_displacement[4] 
4012 2 0.00600697 -0.0503344 0.00361218 0.0508201 
2361 1 -0.0143585 -0.0111522 -0.0354156 0.0398096 
79 1 -0.0501895 -0.0628331 0.0301059 0.0858682 
781 1 0.0526629 -0.0130802 0.0183283 0.0572747 
461 1 -0.00998823 -0.0172262 -0.0239304 0.0311316 
3704 2 -0.0114247 -0.0445804 0.0258843 0.0528009 
629 1 -0.0454876 0.0200034 0.031113 0.0586283 
1571 1 0.00322882 0.00976338 -0.0263314 0.0282683 
58 1 0.0912349 0.0118801 0.127862 0.157523 
2372 1 -0.0493014 -0.0443958 -0.018367 0.0688401 
372 1 -0.00839069 0.00466054 -0.0202393 0.0223999 
3504 2 0.00159829 -0.0654652 0.0278477 0.07116 
4130 2 -0.0123622 -0.0201632 -0.0386044 0.0452734 
1262 1 0.0291566 0.0765511 -0.0673965 0.106078 
907 1 -0.0634447 -0.0471034 -0.109969 0.135414 
3659 2 0.0357448 0.133237 -0.0720071 0.155611 
1298 1 0.0690867 0.0399804 -0.0680163 0.10487 
1716 1 0.00422848 0.0865761 -0.0426365 0.096598 
1182 1 -5.00968e-05 0.00682657 0.0141296 0.0156924 
683 1 -0.00131922 -0.0227209 0.0414746 0.0473088 
1958 1 0.0339029 -0.065238 0.0508821 0.0894114 
1554 1 0.00420493 -0.0611535 -0.041514 0.0740327 
1037 1 -0.032231 -0.143224 0.0166813 0.147751 
749 1 -0.0838867 -0.0325924 0.0370414 0.0973206 
3628 2 0.0574414 0.0436195 0.0333882 0.0794792 
946 1 -0.0297712 0.0079453 -0.0438477 0.0535918 
2232 1 0.0306626 0.00115781 -0.0686577 0.0752025 
7 1 0.0241624 0.00163907 0.0019834 0.024299 
501 1 0.0240578 0.092855 -0.0740587 0.121184 
179 1 -0.0183085 -0.0198541 -0.0901493 0.0941078 
714 1 -0.0233373 -0.0343638 0.101276 0.109463 
4166 2 0.00780297 -0.0411704 -0.0436897 0.0605366 
276 1 -0.0263253 0.0410614 0.066374 0.0823685 
767 1 -0.0562116 -0.0143497 0.0609078 0.0841155 
3890 2 -0.118566 -0.0303281 -0.0730253 0.142515 
6 1 -0.00519428 0.0731911 0.000334992 0.0733759 
2086 1 -0.0133944 -0.00220161 0.0401729 0.0424042 
224 1 0.000316688 -0.0161885 0.000104344 0.0161919 
3660 2 0.0374151 0.0376311 0.0161699 0.0554748 
596 1 -0.0536564 -0.0100214 -0.0237592 0.0595309 
1214 1 -0.0046048 -0.0427714 -0.0311349 0.0531035 
3686 2 0.0362265 0.0265787 0.00784275 0.0456102 
427 1 -0.0448386 0.0655528 0.0594705 0.099219 
350 1 0.00587984 0.0483095 0.0170583 0.051569 
85 1 -0.0281668 -0.0115348 -0.00860299 0.0316296 
598 1 -0.0354136 -0.0137196 0.0914632 0.0990347 
3554 2 0.0026875 -0.0204781 -0.0230998 0.0309867 
29 1 -0.0182729 0.0538719 0.0368611 0.0677851 
464 1 -0.0338718 0.0262279 -0.0275369 0.0509262 
3619 2 -0.0218164 0.0282422 0.0608179 0.0705152 
12 1 0.057162 -0.147918 0.0505059 0.166427 
364 1 -0.0786077 0.0334033 -0.0467949 0.0973895 
1849 1 -0.0907132 -0.0423663 0.0305093 0.104664 
3663 2 -0.0900495 0.0372277 -0.0658007 0.117578 
3517 2 0.0333008 0.0134514 0.0604063 0.0702766 
25 1 0.092913 -0.031542 -0.0193401 0.100009 
4163 2 -0.0161352 0.0222335 -0.0145477 0.0310855 
399 1 -6.8575e-05 0.00841831 -0.0141365 0.0164534 
4265 2 -0.0268556 0.0519063 0.0145989 0.060238 
527 1 -0.00926848 -0.0126944 -0.0256331 0.0300684 
200 1 0.0638384 0.0202167 0.0277335 0.072479 
1951 1 0.0843145 0.0577156 0.0260518 0.105445 
644 1 0.0323894 -0.0358733 0.051522 0.0706434 
193 1 0.000350944 0.0721543 -0.0203915 0.0749812 
550 1 -0.00225814 -0.0284199 -0.0146708 0.0320627 
69 1 -0.00534227 -0.0371432 0.026244 0.045792 
842 1 -0.0499519 0.0323946 -0.0793343 0.0991894 
578 1 -0.0446947 0.0284876 -0.00610417 0.0533518 
172 1 0.00288345 -0.0752428 0.0198803 0.0778782 
381 1 -0.00941858 0.0643665 -0.070678 0.096058 
3524 2 0.0533454 -0.0753897 0.0869847 0.126869 
688 1 -0.041354 0.0648797 -0.00321956 0.0770058 
3651 2 -0.0133361 0.0461351 0.00648126 0.0484593 
2367 1 0.0281113 0.0231423 -0.00537176 0.0368058 
1244 1 -0.0474178 0.0369665 0.0388608 0.07159 
796 1 -0.0876514 0.065701 -0.0212258 0.111579 
691 1 0.04806 -0.0095499 0.0140332 0.0509696 
421 1 0.0116056 0.0182051 0.0957482 0.0981521 
597 1 -0.0486505 0.0507828 -0.018363 0.072684 
3617 2 0.00501862 0.0159078 -0.0484486 0.0512397 
120 1 0.0483945 0.032943 0.0178638 0.0612078 
769 1 -0.0346135 0.0212334 0.0405351 0.0573764 
2142 1 -0.000964397 0.0134213 -0.0120071 0.0180342 
3611 2 0.0934616 0.0526919 0.0841504 0.136355 
1915 1 -0.0267366 0.0318494 0.000489342 0.0415869 
2140 1 -0.0218837 0.00659879 0.0725418 0.0760575 
3828 2 0.0802487 0.0150294 0.0283917 0.0864397 
3204 1 0.0056376 0.0677709 0.0250468 0.0724708 
175 1 0.0614205 0.0445534 -0.0337558 0.0830478 
2011 1 0.0546572 0.0249543 -0.0305947 0.0674252 
75 1 -0.0148598 0.0525258 0.0257908 0.0603733 
547 1 -0.0431436 0.00761671 -0.0367811 0.0572035 
4316 2 -0.0222358 0.0213463 -0.00463619 0.0311704 
559 1 0.0222201 0.0279865 -0.0338019 0.0491888 
717 1 0.0246516 0.0330365 -0.025165 0.0482948 
242 1 0.0087275 -0.0164469 0.0478775 0.0513705 
3510 2 -0.034272 0.0173963 0.0360982 0.0527284 
130 1 0.0414554 -0.0383591 0.0759409 0.0946414 
143 1 -0.012065 0.0269334 -0.0413898 0.0508339 
202 1 -0.0908996 -0.0222385 -0.0479792 0.105163 
182 1 -0.0911256 0.0432267 -0.00726093 0.101119 
84 1 0.0259703 -0.0541284 -0.0493988 0.0777469 
3633 2 0.0133933 -0.0532127 0.0486156 0.0733106 
35 1 -0.0989833 -0.0468418 0.075657 0.133101 
3612 2 0.0157112 0.0408837 -0.0831382 0.0939696 
40 1 0.0955672 0.063352 0.0478167 0.12423 
4005 2 0.0421577 -0.0606279 0.0157869 0.0755132 
718 1 -0.00858955 0.0327071 -0.0317983 0.0464184 
134 1 -0.00389313 -0.0389987 0.0399473 0.0559629 
511 1 -0.0269338 -0.0715882 0.0691608 0.103119 
757 1 0.0503675 0.110004 -0.00379276 0.121046 
3555 2 -0.0526425 0.0188417 0.0161654 0.0582027 
3481 2 -0.0228643 0.0175465 -0.0239009 0.0374421 
135 1 0.012023 -0.0451208 0.00105749 0.0467071 
369 1 0.0263944 -0.0277039 0.0882949 0.0962298 
2148 1 -0.0470076 -0.025856 -0.0182653 0.0566733 
3462 2 0.0355816 -0.0590614 -0.102676 0.12368 
1914 1 -0.0209858 0.00593752 0.00307381 0.0220251 
3661 2 0.0501121 -0.0658387 0.018331 0.0847466 
1871 1 0.0189702 0.0170288 -0.0238724 0.0349248 
320 1 -0.0315317 -0.0198364 -0.0313955 0.0487177 
582 1 -0.00979746 -0.0770401 0.00429036 0.077779 
766 1 -0.0305932 0.012463 -0.00402911 0.0332791 
3552 2 -0.00694118 -0.0436706 0.0145792 0.0465602 
2290 1 -0.032608 0.0388983 0.0418258 0.0657705 
1794 1 0.0123684 -0.007395 0.0266767 0.0303201 
753 1 -0.0698405 0.0277544 0.00548369 0.075353 
396 1 -0.0094896 -0.0255257 0.0695021 0.0746469 
496 1 -0.0049673 0.0418052 -0.0590352 0.0725086 
480 1 -0.0308927 -0.0440831 0.0537052 0.076039 
253 1 0.0405065 0.00210555 -0.00398101 0.040756 
4033 2 -0.00197391 0.017888 -0.0281825 0.0334385 
347 1 -0.0498864 0.0122742 0.0402001 0.0652331 
586 1 -0.0486658 0.0275388 -0.0857212 0.102347 
3671 2 0.0879364 0.00709494 -0.0803631 0.119337 
37 1 -0.0109812 -0.0465383 0.0127922 0.0494979 
782 1 0.0217484 -0.0630992 -0.00655614 0.0670633 
481 1 0.0357961 -0.0035891 -0.0526012 0.0637269 
392 1 -0.0455865 0.0291473 -0.0797046 0.0963354 
333 1 0.0269885 -0.0389275 -0.0204243 0.0515837 
342 1 0.00337436 0.0112873 -0.0319158 0.0340207 
1179 1 -0.0103184 0.00729514 -0.0413479 0.0432358 
517 1 -0.0135104 -0.0388199 -0.0293725 0.0505199 
1824 1 0.0486544 -0.0318333 0.0933046 0.109938 
34 1 0.00776762 0.0199329 0.032526 0.0389306 
398 1 0.0102861 -0.0170965 -0.0329656 0.0385334 
170 1 -0.0539994 -0.0422771 -0.0356448 0.0772906 
235 1 0.0118873 -0.102168 0.0224467 0.105278 
3852 2 -0.0140697 -0.0471265 -0.00796341 0.0498225 
816 1 0.0328691 -0.00109321 -0.00947355 0.0342246 
3931 2 -0.0681086 -0.0766208 0.0918625 0.137653 
274 1 -0.0287308 -0.0348843 -0.0153603 0.0477317 
30 1 0.0261634 0.00210241 -0.0201354 0.0330814 
2066 1 0.0607463 -0.0415482 0.0776278 0.106969 
1082 1 0.0205466 -0.00817257 0.0316516 0.0386106 
1372 1 0.00422654 -0.0250949 0.0670161 0.0716852 
1265 1 0.0532537 -0.0107081 -0.0664984 0.0858642 
601 1 0.0350823 0.0420546 0.0443437 0.0704679 
540 1 0.0191084 0.0335025 0.0313634 0.0497112 
589 1 -0.0284799 0.0926585 0.0403061 0.104982 
958 1 0.0493638 0.00761839 -0.0316986 0.0591576 
504 1 -0.0656026 0.0295298 -0.00495105 0.0721125 
1349 1 -0.0154745 0.0444763 -0.0172139 0.050139 
9 1 0.00105579 -0.0762694 0.0300384 0.0819783 
149 1 0.0129773 0.0514603 0.0144774 0.0550107 
163 1 0.0265682 -0.0309808 -0.0166375 0.0440737 
4247 2 0.0103007 -0.0319084 -0.0497954 0.060032 
1584 1 0.113097 -0.0137169 -0.092916 0.147012 
3570 2 -0.0259958 -0.0483693 0.00263839 0.0549757 
237 1 0.0159662 0.0336265 0.00457873 0.037505 
490 1 -0.0180135 -0.0406436 0.0143908 0.0467277 
50 1 -0.0389739 -0.0726335 0.0334614 0.0889621 
152 1 0.0206055 0.0135229 0.00229049 0.0247529 
3652 2 0.00562851 -0.0150773 -0.000469649 0.0161005 
3823 2 -0.00206483 0.0587292 -0.0665214 0.0887608 
902 1 0.026007 0.0528687 -0.0187701 0.0618367 
3574 2 -0.0224444 0.0395858 -0.0472608 0.0656076 
770 1 -0.00641404 -0.0498229 -0.0144747 0.0522779 
154 1 0.00496915 -0.00968986 -0.0234005 0.0258102 
116 1 0.0666707 -0.0505422 0.01958 0.0859237 
710 1 -0.0623273 -0.102216 -0.0273619 0.122806 
1956 1 -0.00755932 0.0450545 -0.0680433 0.0819569 
1810 1 -0.0906147 -0.0296228 0.0744645 0.120969 
2072 1 -0.02508 -0.0220972 -0.0254227 0.0419953 
1649 1 -0.008186 -0.00199018 -0.0282527 0.029482 
186 1 -0.0289159 -0.0275599 0.0716733 0.0820532 
1063 1 -0.0228234 0.0329873 -0.120164 0.126682 
432 1 -0.0662089 0.0614426 -0.0741725 0.116878 
2495 1 -0.0747389 -0.0836274 0.0613568 0.127844 
3896 2 0.00222728 -0.0099585 -0.0316761 0.0332793 
1071 1 -0.0209321 -0.0324275 -0.0419548 0.0570079 
913 1 0.0485511 -0.0653503 0.0318704 0.0874276 
1068 1 0.0521495 0.0232682 0.00250832 0.05716 
265 1 -0.0481538 0.0209964 -0.015679 0.0548222 
1287 1 0.00750788 0.0876701 -0.0022716 0.0880204 
3799 2 0.0241364 -0.0329082 -0.0664462 0.0779783 
554 1 0.028231 -0.0248268 -0.0646118 0.0747532 
1414 1 -0.023271 0.034899 -0.0676183 0.0795721 
213 1 0.00215497 -0.0344912 0.00109801 0.0345759 
341 1 -0.0478532 -0.0290826 -0.0304696 0.0637505 
3682 2 -0.0392461 0.00877492 -0.0416537 0.057899 
754 1 -0.0390856 0.0915276 -0.007162 0.0997812 
112 1 -0.050377 0.0357082 0.00537717 0.0619826 
1041 1 -0.0228038 -0.0796246 0.0165873 0.0844703 
119 1 -0.000657884 -0.0191508 0.0729138 0.0753898 
415 1 0.0165589 0.0427262 -0.0325571 0.0562111 
995 1 -0.0315145 0.0329234 0.0179536 0.0489842 
4128 2 -0.0318676 -0.0367161 0.0924424 0.104447 
8 1 0.0588327 0.0523169 -0.00462962 0.0788656 
94 1 0.00105076 -0.0534974 0.00785679 0.0540815 
48 1 0.00979127 0.0174103 0.00244702 0.020124 
3998 2 0.0195289 0.0380624 0.0302735 0.0524081 
3866 2 0.0329552 0.0213967 -0.00956502 0.0404395 
2206 1 0.0195362 -0.00997798 -0.0135448 0.0257815 
3490 2 -0.0601412 -0.012302 -0.0131798 0.0627854 
3072 1 0.00598299 -0.0357529 0.057212 0.0677295 
3002 1 0.0716418 0.0151543 0.029047 0.0787777 
92 1 0.00938657 0.0886947 0.0700481 0.113409 
335 1 -0.0414767 0.0596856 -0.045885 0.0859542 
4034 2 -0.108203 -0.0966125 0.0336731 0.148915 
1186 1 0.0180491 0.00826878 0.00833769 0.0215327 
1114 1 0.0732932 0.0351535 0.0247073 0.0849594 
1821 1 -0.0200735 -0.0427144 -0.0464983 0.0662537 
1922 1 -0.000766158 -0.0707363 0.00640025 0.0710294 
451 1 -0.063338 -0.0436524 -0.0052835 0.0771047 
3960 2 0.00424438 -0.024346 0.0121001 0.0275165 
100 1 -0.0232381 0.0397526 -0.0451553 0.0644925 
1180 1 -0.0106375 -0.043059 -0.052966 0.0690842 
165 1 0.0639708 -0.00865764 -0.0100536 0.0653322 
388 1 -0.0570577 -0.0531065 -0.0283408 0.0829402 
3742 2 0.0674536 -0.0324109 0.0336401 0.0820494 
323 1 -0.0684816 0.0849441 -0.0728017 0.131169 
288 1 -0.0375287 0.00909799 0.0130925 0.0407749 
3942 2 -0.0396342 0.0408606 0.0751407 0.0942687 
66 1 0.0395925 0.0345935 0.0409191 0.0666232 
340 1 -0.0152322 -0.0336622 0.00409322 0.0371741 
138 1 -0.0253032 0.0180671 0.0159438 0.0349411 
879 1 0.010959 0.0026171 -0.0517325 0.0529453 
3808 2 0.0442907 -0.00921898 0.00285313 0.0453299 
834 1 -0.0248217 0.0132998 0.0197517 0.0343967 
18 1 -0.043844 -0.0466961 -0.0773303 0.100413 
3679 2 0.0102256 -0.0203013 -0.00626585 0.0235789 
52 1 0.033344 -0.00382501 -0.0113519 0.0354305 
407 1 -0.0516919 -0.00804692 -0.0655081 0.0838338 
360 1 0.0445071 -0.0216777 -0.0993455 0.110997 
2885 1 -0.0684432 -0.0554602 -0.0276944 0.0923433 
3526 2 -0.00315571 -0.119615 -0.0326236 0.124024 
310 1 -0.0605529 -0.0194034 0.0123455 0.0647731 
326 1 0.0567751 -0.0118901 0.0377757 0.0692228 
227 1 -0.0106887 -0.0145433 -0.0106086 0.0209356 
2068 1 -0.0574915 -0.0566583 -0.0956394 0.125149 
456 1 0.01109 -0.0019651 0.0229993 0.0256089 
279 1 -0.0259543 0.0165652 0.0568906 0.0646882 
305 1 -0.0728564 0.0109595 -0.0194753 0.0762067 
49 1 0.00867651 0.0487553 0.0351048 0.0607018 
3512 2 -0.00293128 -0.0673584 0.040744 0.0787771 
11 1 -0.0339181 -0.0958799 0.00171679 0.101717 
189 1 -0.0158598 0.0580034 0.0579552 0.0835148 
2271 1 -0.0573862 -0.0251492 -0.0201025 0.065801 
319 1 -0.0651213 -0.0349757 -0.0106951 0.0746891 
3566 2 -0.0143759 0.0437434 -0.0340947 0.0572939 
71 1 -0.0206328 0.0154408 0.00349487 0.0260066 
1560 1 -0.0210764 -0.034879 0.0436864 0.0597433 
190 1 0.00488576 -0.0333181 0.0327416 0.0469679 
123 1 0.0498669 0.0166172 0.0425347 0.0676168 
27 1 -0.0346021 0.002266 -0.0274564 0.04423 
162 1 -0.0140151 -0.00614088 -0.0759113 0.0774381 
255 1 -0.065356 0.0139937 -0.0336434 0.0748272 
304 1 -0.0703152 0.00525758 -0.0342767 0.0784013 
321 1 -0.000123312 -0.0644906 0.110027 0.127535 
682 1 -0.0328872 0.0321167 0.00163753 0.0459971 
3469 2 0.0682883 0.0611701 -0.0713988 0.116202 
3539 2 0.0307614 0.0425964 0.0520473 0.073957 
128 1 0.0551823 -0.0276251 -0.027507 0.0675638 
3562 2 0.0839571 0.0284683 0.0412159 0.097765 
560 1 -0.0764828 -0.0437783 0.014558 0.0893202 
212 1 -0.00108668 0.0283525 0.00316873 0.0285497 
355 1 0.0118869 0.0530235 0.0944073 0.108929 
156 1 0.0673447 0.0360462 0.0540109 0.0935511 
3620 2 -0.0140443 -0.0285845 0.00155405 0.0318862 
1823 1 0.112645 -0.0916714 -0.0686182 0.160627 
1805 1 -0.000882937 0.0651926 0.0720938 0.0972028 
2599 1 -0.0167076 0.0151752 -0.00546047 0.0232217 
327 1 0.000694957 0.0124396 -0.00464767 0.0132976 
137 1 0.0480304 -0.0109697 0.063807 0.0806138 
2334 1 -0.00969153 0.0385008 0.0239112 0.0463463 
3698 2 0.0299924 -0.0640505 0.0185347 0.0731132 
555 1 0.00934955 -0.0336785 -0.0350845 0.0495235 
4178 2 0.0325475 -0.0303009 0.0288179 0.0529901 
290 1 -0.00591188 0.0541451 -0.0198002 0.0579542 
284 1 -0.0275736 -0.00416664 -0.049945 0.0572029 
3543 2 0.0266991 -0.00507923 0.0279349 0.0389743 
366 1 0.0240693 -0.0393978 0.0146155 0.0484266 
55 1 -0.0260157 0.0237532 -0.0057867 0.0357004 
273 1 -0.0131979 -0.0568765 0.0013289 0.0584028 
3468 2 0.0414235 0.0206505 0.0196285 0.0502755 
316 1 0.0601749 -0.038693 0.0909242 0.115695 
81 1 -0.0576626 0.0269237 0.0297749 0.0702596 
322 1 0.0267662 -0.00603836 -0.00915376 0.0289255 
239 1 -0.0257768 0.0201337 -0.0440586 0.0548723 
734 1 -0.0512366 -0.0712053 -0.0297514 0.0926312 
384 1 0.0760838 -0.0312876 -0.0343782 0.0891601 
3476 2 -0.0113609 0.0716473 0.00593466 0.0727847 
311 1 0.0161432 -0.0326183 -0.0575131 0.0680611 
3471 2 -0.0169773 0.0156625 0.00579713 0.0238149 
1938 1 0.00632892 -0.0455472 -0.0125767 0.0476737 
139 1 0.0933026 -0.0370407 -0.0123219 0.10114 
727 1 0.0340728 -0.0203501 0.0512247 0.0648001 
1885 1 0.00431044 0.0368195 -0.0627992 0.0729246 
2184 1 0.0597718 0.146507 -0.0905335 0.1823 
2494 1 -0.100596 -0.0613208 -0.0971264 0.152687 
2091 1 -0.0373288 -0.0170116 -0.0380055 0.0559219 
281 1 0.0422802 0.0648392 0.0772503 0.109359 
863 1 0.0112132 0.084955 0.00283367 0.0857387 
176 1 -0.0721426 0.052989 -0.0340473 0.0957685 
3710 2 -0.0054796 0.051459 -0.0269236 0.0583347 
3572 2 0.00513751 -0.0622524 -0.0283481 0.0685957 
4197 2 -0.0607373 0.0264533 -0.0120541 0.0673357 
343 1 -0.00258643 -0.031411 -0.0825435 0.0883559 
282 1 -0.00721365 -0.0276356 0.00168735 0.0286114 
1038 1 -0.0165399 0.0396961 0.00266448 0.0430865 
408 1 0.121407 0.080917 -0.026298 0.148253 
412 1 0.104543 -0.0448195 -0.00808353 0.114032 
820 1 0.0699592 0.00111919 0.0137453 0.0713055 
585 1 -0.0412331 -0.0362891 -0.0458353 0.0715398 
3609 2 0.0346496 -0.0418242 0.00110154 0.0543238 
719 1 -0.0222679 0.0542292 -0.0171771 0.0610878 
608 1 0.00342163 -0.0195514 -0.00972496 0.0221029 
106 1 -0.0171927 0.0508464 0.0302148 0.0615945 
1047 1 -0.0868949 -0.0204643 -0.00837809 0.0896644 
3573 2 0.00242395 0.01867 -0.043666 0.0475517 
751 1 -0.0251931 -0.0144796 -0.0296434 0.04151 
259 1 0.0472762 -0.0544171 0.0159631 0.0738314 
245 1 -0.0635078 -0.00855554 -0.0508633 0.0818139 
613 1 -0.0316794 -0.00108633 0.112578 0.116955 
4296 2 -0.0279171 0.0309613 0.0198174 0.0461594 
272 1 -0.074496 -0.0725244 -0.00564347 0.104122 
4239 2 -0.0110253 -0.0857698 -0.0402409 0.09538 
88 1 0.0474322 0.0738912 0.0514207 0.101754 
4 1 0.101025 -0.00883955 -0.0487789 0.112532 
361 1 0.046608 0.078682 -0.102764 0.137563 
358 1 -0.0208005 -0.0280262 -0.0191074 0.0397897 
194 1 -0.00475709 0.0255971 -0.0574403 0.0630653 
2373 1 -0.00100072 -0.0245448 -0.0558763 0.0610378 
1982 1 -0.000547532 -0.0224964 -0.0185719 0.0291771 
3953 2 -0.0105512 0.0135264 0.0311836 0.0355908 
414 1 0.0110462 0.0105931 -0.0285802 0.0324201 
3186 1 0.0545777 -0.0646784 0.0264409 0.0886631 
177 1 0.0508646 -0.0142488 0.0725116 0.0897116 
1962 1 -0.0341704 0.0368292 0.042846 0.0660287 
706 1 0.0336237 -0.0084848 -0.0188416 0.0394658 
1544 1 -0.0227286 -0.0354068 0.000970011 0.0420852 
4160 2 -0.0185384 -0.000386072 -0.00831268 0.0203204 
19 1 -0.0232063 -0.0420899 -0.0652417 0.0810344 
3624 2 0.00903175 -0.0167522 -0.040747 0.0449725 
115 1 0.100174 -0.0629677 -0.00631072 0.118489 
1102 1 -0.068511 0.00380728 -0.0132343 0.0698813 
1492 1 0.0272379 0.0265174 0.0357881 0.0522098 
649 1 0.049021 0.101892 -0.0465137 0.122264 
113 1 0.0263234 0.00815944 -0.00709445 0.0284575 
1150 1 0.0344278 -0.0150102 0.0386569 0.0538974 
620 1 -0.0708404 0.027318 0.0157281 0.0775371 
739 1 -0.0637645 -0.0147344 0.0273008 0.0709108 
2412 1 0.00683641 0.0588719 0.00265661 0.059327 
3746 2 0.0600736 0.0185361 -0.107648 0.124662 
1225 1 0.0242887 0.0559201 0.0613186 0.0864695 
241 1 0.0578206 0.043295 -0.0103335 0.0729688 
83 1 0.030019 0.0374889 -0.0210725 0.0524462 
1006 1 0.0163716 0.00500022 -0.00626541 0.0182287 
4046 2 -0.0727612 -0.0349179 -0.0392183 0.0897303 
96 1 0.0322352 -0.0709891 -0.0104926 0.078668 
411 1 0.0406873 0.0466173 0.0527866 0.081333 
2454 1 -0.0269722 0.00155101 -0.028867 0.0395374 
404 1 -0.0433034 0.0364469 0.0543975 0.0785026 
226 1 0.0552909 -0.0172227 0.0656894 0.0875717 
534 1 0.0319868 -0.00895588 0.0833796 0.0897525 
3538 2 0.018306 0.0314968 0.0010909 0.0364465 
761 1 0.0539259 0.00148199 0.0160933 0.0562956 
246 1 0.0797593 -0.0660015 0.031637 0.108253 
2229 1 0.0202236 -0.0560418 0.0250584 0.0646344 
146 1 -0.00494151 0.02636 -0.03567 0.0446275 
3608 2 0.0545268 -0.0258757 -0.00772273 0.060847 
503 1 -0.03394 -0.00453034 0.0384386 0.0514779 
505 1 0.0631 -0.020647 -0.0104955 0.0672165 
1430 1 -0.0670097 -0.0275466 -0.000616245 0.0724534 
97 1 -0.00561952 0.0322317 -0.037767 0.0499681 
1723 1 0.0276718 -0.01419 -0.0682495 0.0750005 
3561 2 0.0190845 0.0749314 -0.0115499 0.0781814 
20 1 -0.0455894 -0.0707722 -0.0242012 0.0875945 
263 1 -0.0541928 0.0817871 0.0199011 0.10011 
817 1 0.0647636 -0.0420364 0.00283706 0.0772621 
1034 1 0.0172143 0.0134558 0.0141119 0.0260103 
353 1 0.0334794 -0.00715098 0.0571845 0.0666489 
1260 1 0.0436511 0.0638832 -0.01662 0.0791373 
998 1 0.0135278 0.0305075 -0.0366963 0.0496017 
1932 1 0.0570529 -0.0864144 -0.0053084 0.103685 
36 1 0.0576779 -0.070181 0.0334575 0.0968066 
38 1 -0.0354603 -0.0229587 -0.0629827 0.0758377 
3130 1 0.00521089 0.0307962 -0.0321903 0.0448528 
1973 1 0.0621931 -0.0513193 0.104956 0.132354 
307 1 -0.032048 -0.0522962 -0.0785738 0.0996785 
2714 1 0.0829101 0.0353435 0.0139927 0.0912088 
28 1 0.0128509 -0.00132922 -0.00509746 0.0138887 
1937 1 -0.00325832 0.00482185 -0.0314604 0.0319941 
562 1 -0.0560862 -0.0754113 0.000560549 0.0939832 
3011 1 -0.0608326 -0.0201374 0.0163828 0.0661401 
410 1 0.0746058 -0.0167697 0.0218858 0.0795376 
693 1 0.0496956 0.0916231 0.0244725 0.107067 
367 1 -0.0288077 0.00339325 -0.00828628 0.0301672 
318 1 0.0881746 0.0243956 -0.0149248 0.0926966 
735 1 0.0595427 -0.0373397 0.0223152 0.0737397 
600 1 -0.0294439 0.0584509 0.0420065 0.0777688 
3590 2 -0.0640495 0.0320715 -0.0722743 0.101757 
3636 2 0.0360279 -0.0941728 0.0320656 0.105805 
26 1 -0.0458608 0.0557395 0.041081 0.0830528 
1199 1 0.0421611 -0.00906858 -0.0351298 0.0556229 
614 1 -0.0258303 -0.0336855 -0.00758057 0.0431205 
459 1 0.0548899 -0.0394898 -0.0415956 0.0793886 
3645 2 0.053229 0.0753755 0.0304005 0.0971544 
574 1 0.0209507 0.0539216 -0.0285805 0.0645238 
780 1 0.0675321 -0.0113099 -0.00971865 0.0691589 
161 1 -0.0169406 0.0536489 -0.0418485 0.0701177 
309 1 0.0905147 0.0368884 0.0195746 0.0996836 
365 1 -0.00613644 -0.0784296 -0.00189654 0.0786922 
191 1 -0.0402084 0.0597493 0.0084869 0.072517 
1766 1 0.0210884 0.0839718 -0.0433436 0.0968227 
2775 1 -0.0166869 -0.0740458 -0.0402135 0.0858974 
1030 1 0.00624604 -0.0215718 0.0471417 0.0522178 
1505 1 0.0605239 0.0893253 0.076711 0.132389 
3872 2 0.00534157 0.0358157 -0.00351489 0.036382 
580 1 -0.0330407 -0.0439322 -0.0253475 0.0605328 
2054 1 -0.106534 -0.0465217 -0.0477781 0.125684 
2064 1 0.0432127 0.00323906 -0.0440599 0.0617989 
529 1 0.00625209 0.0365108 -0.0570235 0.0679986 
402 1 -0.00204029 0.0413807 -0.0188832 0.0455313 
124 1 0.0149629 -0.0521474 0.010044 0.0551736 
744 1 0.046086 0.0291777 -0.00250188 0.0546033 
185 1 0.072054 -0.0404237 0.0920069 0.123657 
315 1 -0.0167736 -0.0429975 -0.0431106 0.0631559 
655 1 -0.043128 0.00678591 0.0660865 0.0792054 
765 1 -0.0203249 0.0766946 0.0245042 0.0830399 
140 1 0.0256211 0.0474756 -0.00646069 0.0543334 
59 1 -0.0331993 -0.0257189 0.0208234 0.046875 
54 1 0.0103176 0.0106492 0.0478522 0.0500969 
3506 2 0.0195438 0.0345103 -0.0272276 0.0481068 
666 1 -0.0481404 -0.071198 0.0572497 0.103268 
43 1 0.0280375 0.10818 0.045475 0.120653 
334 1 0.014373 0.0321267 -3.47716e-05 0.0351953 
267 1 0.0749269 0.0463394 0.0188152 0.0900855 
99 1 0.0510957 0.0138536 0.0766822 0.0931818 
1189 1 -0.063593 -0.0473559 -0.0885341 0.118848 
201 1 0.0171431 -0.0495866 -0.0446491 0.0688931 
380 1 0.0333889 0.0704155 -0.095486 0.123251 
1777 1 0.0220044 -0.0140276 -0.0351218 0.0437551 
2597 1 0.16166 -0.014321 -0.055718 0.171591 
2484 1 0.0980087 -0.0341315 -0.0756864 0.128449 
308 1 -0.0504172 -0.02623 -0.0229576 0.061294 
3918 2 -0.0260153 0.0402914 0.000818332 0.0479673 
89 1 -0.0471956 0.0108389 -0.0323043 0.0582107 
300 1 -0.00636414 0.0271057 -0.00654422 0.0286015 
3582 2 0.0145439 0.0687772 0.0088212 0.0708494 
712 1 -0.0601906 0.0290531 0.057421 0.0881145 
3836 2 -0.00532883 0.0202168 -0.0450753 0.049688 
268 1 0.0271269 0.00619405 -0.0187788 0.033569 
788 1 0.016761 0.0152228 -0.0817049 0.0847842 
4091 2 -0.00996109 0.0825741 0.0331664 0.0895417 
371 1 0.0447823 0.0190995 0.0237857 0.0541849 
3505 2 0.00663054 -0.0167182 0.0788853 0.0809096 
266 1 0.00825157 -0.0279695 -0.0189436 0.0347742 
3571 2 -0.068757 0.0633487 0.0141164 0.0945508 
637 1 -0.0121771 0.00240531 -0.0301783 0.0326312 
157 1 0.0463899 -0.00217741 0.00806999 0.0471369 
257 1 0.0167829 0.0402331 0.0401935 0.0592949 
571 1 -0.0458375 0.00234584 -0.0474643 0.0660261 
665 1 -0.07184 0.0321725 0.0939562 0.122572 
448 1 -0.0656346 -0.0232584 0.014171 0.071061 
827 1 0.0916452 0.0718623 -0.0117244 0.117049 
3475 2 -0.0146078 -0.0209829 0.0230411 0.0344175 
73 1 -0.0139721 0.0832389 -0.0114581 0.0851776 
373 1 0.0365504 -0.0461141 0.0453355 0.0742815 
247 1 -0.000480862 -0.0118893 -0.0197237 0.023035 
107 1 0.0371725 0.00881852 0.0313415 0.0494151 
675 1 -0.00484408 0.0411372 -0.0843466 0.0939686 
434 1 -0.0129107 0.0450946 0.0296837 0.0555097 
159 1 -0.0257604 0.00666493 -0.00899992 0.0280895 
32 1 0.0219767 0.0477266 0.000995393 0.0525528 
3579 2 0.0144178 -0.0648437 -0.0170099 0.0685705 
394 1 -0.0267209 0.00666635 0.0319899 0.0422113 
260 1 -0.0485876 0.00643243 0.0113189 0.0503016 
3972 2 -0.0275792 0.0138255 0.0874307 0.092714 
1801 1 -0.0576661 0.0019811 0.0505624 0.0767193 
2122 1 -0.0141087 0.0206267 0.0532144 0.0587902 
1966 1 0.0237945 -0.00348991 -0.0453538 0.0513354 
291 1 -0.00262348 1.6502e-05 0.0204251 0.0205929 
2047 1 0.0516709 -0.00134503 0.0374287 0.0638169 
1899 1 -0.0256072 0.11575 0.0159141 0.119612 
622 1 -0.0573241 0.0115471 0.00955072 0.0592503 
1993 1 -0.0176399 0.00969629 -0.0125183 0.0237042 
62 1 0.0389979 0.0504249 0.016231 0.0657796 
2187 1 0.0200015 -0.00550301 -0.0790409 0.0817178 
4318 2 0.0327184 -0.0423477 -0.0049933 0.0537472 
44 1 -0.0314888 -0.0502477 0.0392471 0.0711105 
824 1 -0.0228349 -0.00975795 0.016811 0.0299877 
1282 1 -0.0310301 0.0106492 0.074673 0.0815618 
3626 2 0.0296022 0.0330514 -0.0110205 0.045718 
819 1 0.0319044 0.00639418 0.0406396 0.052061 
773 1 -0.067368 -0.0557298 0.0168657 0.0890433 
270 1 0.0443549 -0.063944 0.0386966 0.0869115 
14 1 -0.0540393 0.0396191 -0.0508269 0.0841029 
3540 2 0.0349837 -0.0421021 -0.0082819 0.0553627 
997 1 0.0763521 0.00170695 0.00649169 0.0766466 
4275 2 -0.0142964 -0.0563751 -0.0528649 0.0785954 
164 1 0.0381666 0.0445855 0.109052 0.123843 
234 1 -0.0519122 -0.0582817 0.0353992 0.0857015 
1125 1 -5.84297e-05 0.0668395 -0.0509067 0.0840179 
3985 2 -0.0649348 -0.0062856 0.0749384 0.0993569 
328 1 0.0182168 0.0125326 -0.0359471 0.0422032 
3474 2 0.00700166 0.0183166 -0.0097506 0.0218997 
543 1 -0.049338 -0.0297445 -0.00649172 0.0579752 
293 1 0.0509005 -0.0296098 0.0147609 0.0607082 
3458 2 0.0416483 -0.0481357 0.0390862 0.0746951 
390 1 -0.0199844 -0.0469292 0.023097 0.0559929 
3706 2 0.0977558 -0.0509524 -0.0510352 0.121478 
2169 1 0.0542458 0.0317559 0.016619 0.0650172 
1786 1 -0.0364157 0.0281245 -0.0601219 0.0757082 
1478 1 0.0228638 -0.0207079 0.0855558 0.0909471 
87 1 -0.0132831 -0.0290871 -0.00856358 0.0331034 
4090 2 -0.00084582 -0.0489293 0.0469395 0.0678093 
142 1 -0.0212404 0.0208585 0.0533851 0.0611245 
1650 1 -0.0593745 -0.0311863 -0.0581526 0.0887673 
153 1 -0.00205766 0.0334592 0.015307 0.0368518 
374 1 0.0400785 -0.0204013 0.000187093 0.0449726 
602 1 -0.00635724 -0.0276809 -0.0105503 0.0302978 
1277 1 -0.0448187 0.0102346 0.00605571 0.0463696 
76 1 -0.0456527 -0.0242266 0.0376637 0.0639504 
1370 1 0.0373669 -0.0368028 0.0799842 0.0956462 
221 1 0.0125528 0.00468717 -0.055142 0.0567467 
604 1 -0.000287764 0.055061 0.0620805 0.0829806 
1161 1 -0.0534732 -0.00306756 0.0405259 0.0671651 
1718 1 -0.0902582 0.00345953 -0.0577574 0.107212 
178 1 0.0459365 -0.0935783 -0.00121013 0.104252 
295 1 -0.051425 -0.0375944 0.0164659 0.0657951 
1472 1 -0.0470274 -0.0558952 0.0355774 0.0812503 
4159 2 -0.0133116 -0.0413361 -0.0297383 0.0526331 
3467 2 0.0789825 -0.0051169 0.0226997 0.0823389 
3531 2 0.0420491 -0.0178592 0.0923188 0.103004 
2720 1 -0.10333 0.0456155 -0.0259843 0.115901 
1851 1 0.0143254 0.0299667 0.000348741 0.0332166 
732 1 -0.0506856 -0.0686994 0.00677213 0.0856417 
4009 2 0.039752 0.0760169 -0.0184857 0.0877526 
3878 2 0.0104287 0.0129013 -0.01873 0.0250203 
3185 1 -0.069172 -0.0316879 0.00903223 0.076619 
110 1 -0.0578583 -0.0214089 0.0184809 0.0644008 
2963 1 -0.0187566 0.000798791 -0.0164675 0.0249725 
2608 1 -0.0291275 0.00972699 0.000834431 0.03072 
3301 1 -0.00362597 -0.0151959 7.90217e-05 0.0156227 
3759 2 -0.0192497 0.028749 -0.0130424 0.0369751 
4171 2 -0.00213753 0.021158 -0.00103494 0.0212909 
2118 1 -0.0137319 0.0153728 -0.0604797 0.0638958 
1742 1 0.0615966 -0.0820623 0.0167622 0.103968 
642 1 0.0349144 -0.0952583 0.0678837 0.122071 
3366 1 -0.0528561 0.008729 0.0584008 0.0792503 
144 1 0.10558 0.0737155 0.0118121 0.129308 
681 1 0.0421241 -0.0417173 -0.0523913 0.0791178 
1666 1 0.0843454 -0.031489 -0.0337866 0.0961626 
183 1 -0.0771708 -0.0408599 -0.0186812 0.0892964 
694 1 -0.0992131 0.0165914 0.0643146 0.119394 
444 1 -0.0126682 0.0629241 -0.0656317 0.0918012 
869 1 -0.00960559 -0.0848189 0.0651287 0.10737 
920 1 -0.00320159 -0.0606053 -0.0372213 0.0711946 
53 1 0.0270992 0.00636783 0.022199 0.0356049 
1450 1 -0.126978 -0.0545328 -0.00355591 0.138239 
1579 1 0.0993402 -0.0529938 0.0563808 0.125919 
51 1 0.0576237 0.0191161 0.0359277 0.0705459 
4187 2 -0.0648615 -0.0385057 -0.15164 0.169365 
1694 1 0.00486807 -0.0733192 0.039582 0.0834634 
1590 1 0.011846 0.0335079 -0.0261844 0.0441444 
2005 1 -0.0266072 0.0043677 0.114766 0.117891 
736 1 -0.0267224 -0.0142411 -0.0627005 0.0696293 
363 1 0.0212162 -0.00211283 0.0368797 0.0425993 
230 1 0.017272 0.0217805 0.1552 0.15767 
2538 1 -0.0123748 0.0210968 -0.0645835 0.0690597 
357 1 -0.0773962 0.00222404 0.0214433 0.0803426 
3849 2 0.0866889 -0.00639717 0.0224934 0.0897878 
4102 2 0.0672162 -0.083544 0.0369213 0.113406 
1032 1 0.058056 -0.0233877 0.0060705 0.0628835 
78 1 -0.00716296 0.0132921 -0.0148887 0.0212053 
564 1 0.0711329 0.00811181 0.0961846 0.119905 
797 1 0.111575 -0.0336749 -0.0420245 0.123891 
1476 1 0.10161 -0.0296948 -0.0223902 0.108202 
872 1 -0.0600557 -0.0345594 -0.0349382 0.0775997 
475 1 -0.0336023 0.0109558 0.0161274 0.0388489 
4119 2 0.0648129 -0.0519447 -0.0384201 0.0915154 
576 1 -0.109957 0.0480615 0.059857 0.134102 
507 1 0.0446622 -0.0121721 0.0249237 0.0525743 
248 1 0.0763951 -0.0456457 -0.00965233 0.0895148 
3597 2 -0.0417808 0.0221219 0.00948635 0.0482183 
539 1 -0.00281179 0.0241221 0.0784459 0.082119 
63 1 0.0621057 0.0133878 0.0160292 0.0655231 
57 1 -0.0919797 0.00504115 -0.00877216 0.0925345 
854 1 -0.00165544 0.0265016 0.0104966 0.0285527 
668 1 0.105184 -0.0521387 -0.100184 0.154334 
385 1 -0.0908966 -0.109135 0.00695056 0.142201 
752 1 0.0328732 -0.0191827 -0.00871161 0.0390451 
3650 2 0.031199 0.0506728 0.0188111 0.0624097 
3736 2 -0.0738772 -0.0790692 -0.0634319 0.125433 
254 1 -0.0442167 -0.0657288 -0.0238123 0.0827189 
3637 2 -0.0126334 0.0017828 0.0637335 0.064998 
731 1 0.0568823 0.0192276 -0.0559576 0.0820765 