ITEM: TIMESTEP
68
ITEM: NUMBER OF ATOMS
4320
ITEM: BOX BOUNDS pp pp pp
0.0000000000000000e+00 1.9309999999999999e+01
0.0000000000000000e+00 1.9309999999999999e+01
0.0000000000000000e+00 9.6549999999999994e+00
ITEM: ATOMS id type c_displacement[1] c_displacement[2] c_displacement[3] c_displacement[4] 
4012 2 0.0427294 -0.0725228 -0.0527537 0.0993394 
2361 1 -0.0408954 -0.103495 -0.10637 0.153942 
79 1 0.00326331 -0.067065 -0.0121166 0.0682288 
781 1 0.0578469 5.17092e-05 0.144252 0.155418 
461 1 0.0133337 0.0631279 0.0155145 0.0663598 
3704 2 0.0141982 -0.100642 0.0184194 0.103294 
629 1 -0.0477585 0.108912 0.0399395 0.125451 
1571 1 0.0215807 -0.0370436 -0.0390475 0.0579884 
58 1 0.0789323 0.130755 0.0689609 0.167579 
2372 1 -0.060607 -0.032155 -0.0160803 0.070468 
372 1 0.0326018 -0.0862962 -0.0121935 0.0930515 
3504 2 -0.0424817 -0.084704 0.047251 0.105887 
4130 2 0.0654571 -0.0216857 -0.104591 0.125276 
1262 1 0.057278 0.061712 -0.0513485 0.0986194 
907 1 -0.116827 -0.0591307 -0.140028 0.19171 
3659 2 -0.0102892 0.130794 -0.0945773 0.161733 
1298 1 0.0315641 0.0819764 -0.107774 0.139039 
1716 1 0.0581686 0.0539648 -0.072831 0.107704 
1182 1 0.0437289 0.0318388 -0.0441139 0.0697994 
683 1 -0.0111003 -0.0612085 0.042307 0.0752302 
1958 1 -0.0320331 -0.0421328 0.0288918 0.0602995 
1554 1 0.0469401 -0.0907838 -0.0814369 0.130679 
1037 1 0.00753155 -0.124769 0.0168394 0.126125 
749 1 -0.0794612 -0.119319 0.0235646 0.145281 
3628 2 0.0420705 0.0621694 -0.0138811 0.0763391 
946 1 -0.0839966 -0.0328899 -0.0254533 0.0937286 
2232 1 -0.0538866 -0.140828 -0.0980515 0.179862 
7 1 0.026644 -0.0332304 0.0433373 0.0607641 
501 1 -0.0102949 0.00924837 -0.0455418 0.047598 
179 1 -0.0414022 -0.022571 -0.00131133 0.0471732 
714 1 -0.124027 -0.0080638 0.0840203 0.150024 
4166 2 -0.00829004 -0.0832331 0.0962732 0.127534 
276 1 -0.0316241 -0.0510159 0.104218 0.120267 
767 1 -0.0193889 -0.0272976 0.0198193 0.0389088 
3890 2 -0.183658 -0.0470768 -0.0875382 0.208829 
6 1 0.0230857 0.175466 -0.0133643 0.177482 
2086 1 0.0358404 0.0187197 0.0314613 0.0512326 
224 1 0.122872 -0.0609371 0.00801867 0.137387 
3660 2 0.00394673 -0.0207125 0.0856406 0.0881981 
596 1 -0.0895189 -0.00938078 -0.0132709 0.0909822 
1214 1 0.0544611 -0.0602159 -0.0918282 0.122574 
3686 2 -0.00347963 0.00632549 0.0445365 0.0451178 
427 1 -0.123843 0.0605971 0.088111 0.163624 
350 1 0.0224001 0.0689623 -0.0766969 0.105546 
85 1 -0.0346262 0.0569382 0.0803797 0.104412 
598 1 0.0262338 -0.104992 0.0877625 0.139333 
3554 2 0.0705463 -0.0332444 -0.0410823 0.088146 
29 1 -0.173559 0.0655936 -0.0273049 0.187539 
464 1 0.0368599 -0.00656347 -0.134421 0.139537 
3619 2 -0.0767876 0.0376528 0.123413 0.150149 
12 1 -0.0567182 -0.0534302 -0.0786798 0.110735 
364 1 -0.148668 -0.0237461 -0.090271 0.175541 
1849 1 -0.086525 -0.0988057 -0.091872 0.16028 
3663 2 -0.193006 0.0624288 -0.0165995 0.203529 
3517 2 0.0145594 0.0094193 0.135666 0.13677 
25 1 0.221803 0.024487 -0.0705887 0.234049 
4163 2 0.0200489 -0.0347694 -0.0227572 0.0461385 
399 1 0.0581967 0.0374336 -0.0292851 0.0751381 
4265 2 -0.0565999 0.0713584 0.0960985 0.132403 
527 1 0.00333485 0.0792592 -0.045822 0.0916122 
200 1 0.0670854 0.0439139 0.119765 0.144126 
1951 1 0.131457 0.101409 0.0230901 0.167625 
644 1 0.0287393 -0.0383302 0.0494168 0.0688271 
193 1 0.0478142 0.0823096 0.0642334 0.114835 
550 1 0.041237 -0.0225221 -0.0184774 0.0504891 
69 1 0.0238233 -0.0376056 -0.020205 0.0488874 
842 1 -0.0241457 0.036498 -0.0350462 0.0560657 
578 1 0.0191997 -0.0393642 0.0116825 0.0453282 
172 1 -0.0381475 -0.0314439 0.0347135 0.0604067 
381 1 -0.0310873 -0.0128771 0.00540152 0.0340795 
3524 2 0.0380791 -0.0531958 0.0991855 0.118817 
688 1 -0.043161 0.11366 -0.00221743 0.121599 
3651 2 -0.0587282 0.0460297 0.078116 0.108027 
2367 1 0.0372359 0.00479921 -0.0588001 0.0697638 
1244 1 -0.117681 -0.0400727 -0.00480542 0.124409 
796 1 -0.0269437 0.121262 -0.0421868 0.131187 
691 1 0.0419677 -0.00401948 -0.0116635 0.0437434 
421 1 0.0829145 0.0575595 0.0267001 0.104407 
597 1 0.0098383 0.0460172 0.0232533 0.0524889 
3617 2 0.0926832 -0.0244185 -0.0301169 0.100466 
120 1 0.077296 0.200993 0.107346 0.240616 
769 1 -0.0875978 -0.0462527 0.0386084 0.106317 
2142 1 0.0127081 0.0432731 -0.0283892 0.0532917 
3611 2 0.140374 0.00749595 0.183574 0.231215 
1915 1 -0.00356221 0.0903961 0.0736846 0.116677 
2140 1 0.0407323 -0.0350016 0.0908937 0.105574 
3828 2 0.101969 0.0663627 0.0720016 0.141371 
3204 1 -0.0186847 0.0478154 0.0626146 0.0809692 
175 1 0.110745 -0.0175031 -0.0537531 0.124339 
2011 1 0.175427 0.0929496 0.019553 0.199491 
75 1 -0.0248313 0.135277 -0.0605878 0.150291 
547 1 0.0109547 -0.0282386 -0.132116 0.135544 
4316 2 -0.0854086 0.0737425 -0.0900527 0.144368 
559 1 0.0147732 0.0297285 -0.0313197 0.0456394 
717 1 -0.00280567 0.0754 -0.075602 0.106811 
242 1 -0.0110208 -0.0408137 0.107332 0.115358 
3510 2 -0.117823 0.0145401 0.155386 0.195547 
130 1 0.110736 -0.00433535 0.108794 0.155298 
143 1 0.0175672 0.082684 -0.0535033 0.100039 
202 1 -0.148232 -0.119711 -0.0624697 0.200514 
182 1 -0.144463 0.0608803 0.0341366 0.160441 
84 1 0.0380765 0.00034608 -0.000667494 0.0380839 
3633 2 -0.0340313 -0.0339933 -0.0125137 0.0497018 
35 1 -0.172902 0.0435551 0.135086 0.223697 
3612 2 0.013188 0.0385817 0.0165093 0.0439889 
40 1 0.13381 0.109428 0.0950891 0.197286 
4005 2 0.0765971 -0.0842913 0.0640202 0.130655 
718 1 -0.113733 -0.0147487 -0.0501538 0.125173 
134 1 -0.00164512 0.026965 0.104358 0.107798 
511 1 -0.0656132 -0.0342219 -0.00348951 0.0740838 
757 1 -0.00828527 0.177217 0.00487453 0.177477 
3555 2 -0.0711282 0.0992295 0.0630226 0.137396 
3481 2 -0.0170138 -0.0322623 -0.0409019 0.0548023 
135 1 -0.0114681 -0.0434465 -0.0983927 0.108168 
369 1 0.10646 -0.0438615 0.023036 0.117423 
2148 1 -0.089445 -0.0683287 0.0763778 0.136025 
3462 2 0.0553598 -0.0621575 -0.167642 0.187168 
1914 1 0.00273198 0.0328398 -0.0236279 0.0405486 
3661 2 0.100728 -0.14332 -0.00121329 0.17518 
1871 1 0.0127082 0.040521 -0.0406143 0.0587619 
320 1 -0.0809408 -0.0676426 -0.0539801 0.118494 
582 1 -0.0642666 -0.0947669 -0.0530731 0.126205 
766 1 -0.0185798 0.0206594 -0.0262776 0.038243 
3552 2 0.0440553 0.000280114 -0.0171388 0.0472725 
2290 1 -0.021301 0.0555546 0.0263766 0.0650828 
1794 1 -0.0381356 0.102299 0.0837714 0.137612 
753 1 -0.0271591 0.0291149 0.0595462 0.0716313 
396 1 0.0255985 -0.00781153 0.17199 0.17406 
496 1 0.00941916 -0.0420917 -0.0929581 0.102478 
480 1 -0.0424212 -0.0705296 0.0996086 0.129212 
253 1 0.0563686 -0.00876275 -0.0562748 0.0801315 
4033 2 -0.00631226 0.00920055 -0.0647423 0.0656967 
347 1 -0.0203537 0.00348835 -0.0957638 0.0979651 
586 1 -0.106954 0.0401337 -0.104012 0.154494 
3671 2 -0.0156056 0.0225203 -0.0398789 0.0483842 
37 1 0.0678407 -0.1652 -0.0339925 0.181794 
782 1 0.0322958 -0.144892 -0.062983 0.161256 
481 1 0.10489 -0.0612954 -0.071989 0.141214 
392 1 -0.019657 0.0282451 -0.0881145 0.0945957 
333 1 0.0374925 -0.028126 -0.0242155 0.0527555 
342 1 -0.026102 -0.0612181 -0.0536028 0.0854531 
1179 1 0.0165682 -0.0748812 -0.0671737 0.101951 
517 1 0.0330125 -0.0973941 -0.028026 0.106587 
1824 1 0.0300806 -0.0518975 0.0746658 0.0957767 
34 1 0.123606 -0.018498 0.0408181 0.131479 
398 1 -0.0154446 -0.0634685 -0.0814627 0.104417 
170 1 -0.0664017 -0.0620823 -0.0487417 0.103146 
235 1 0.051592 -0.0748607 0.0945407 0.131163 
3852 2 -0.0515548 0.00926525 -0.0148392 0.0544421 
816 1 0.0467823 -0.0543619 -0.117024 0.137253 
3931 2 -0.164886 -0.124048 0.073345 0.218986 
274 1 -0.0180515 -0.0676501 -0.0404748 0.080874 
30 1 -0.0168758 -0.0602096 -0.0363264 0.0723159 
2066 1 0.0904561 -0.0333086 0.155208 0.182706 
1082 1 -0.0317198 -0.150491 0.132595 0.203064 
1372 1 0.00817045 -0.0549217 0.107048 0.120592 
1265 1 0.0519105 -0.0288111 -0.0590405 0.083729 
601 1 -0.0452829 0.0724157 0.00894989 0.0858759 
540 1 -0.0567548 -0.104821 -0.0219998 0.121213 
589 1 -0.0381957 0.133707 0.141902 0.198677 
958 1 0.139578 -0.0200632 0.0532863 0.150745 
504 1 -0.0772641 0.0734469 -0.0367893 0.112773 
1349 1 -0.144808 -0.00995307 -0.0503282 0.153627 
9 1 0.0339714 -0.128747 -0.00505757 0.133249 
149 1 -0.021109 0.0426419 -0.0106216 0.0487518 
163 1 -0.00258487 -0.218788 0.0712316 0.230106 
4247 2 0.0398266 -0.0984378 -0.0677527 0.125963 
1584 1 0.176355 -0.00895704 -0.0677112 0.189119 
3570 2 -0.0424312 -0.109273 -0.0539748 0.129051 
237 1 0.00937822 0.0682371 0.113866 0.133078 
490 1 0.0337345 -0.108689 -0.0096451 0.114212 
50 1 -0.00239264 0.0110118 0.0157593 0.0193737 
152 1 0.103421 -0.00578613 -0.15146 0.183492 
3652 2 -0.072434 -0.0513437 -0.00936791 0.0892783 
3823 2 0.0867623 0.0899591 -0.159402 0.202557 
902 1 0.00609469 0.0610238 0.00233876 0.061372 
3574 2 -0.0239707 0.0526903 -0.0403697 0.0705732 
770 1 -0.0154116 -0.0530431 -0.0693891 0.0886901 
154 1 -0.0612692 -0.0629598 -0.0051874 0.0880043 
116 1 0.0925901 -0.051003 0.0949584 0.142096 
710 1 -0.0892017 -0.164724 -0.0987015 0.211738 
1956 1 -0.0644326 -0.0081052 0.00774944 0.0654011 
1810 1 -0.110121 -0.0133406 0.031967 0.115441 
2072 1 -0.0602887 -0.034407 -0.0249961 0.0737792 
1649 1 -0.0654408 0.0144426 -0.112267 0.130748 
186 1 -0.0733518 0.0857082 0.0664879 0.130947 
1063 1 -0.149919 0.155961 -0.152859 0.264887 
432 1 -0.179864 0.0521964 -0.139647 0.233617 
2495 1 0.00465726 -0.103009 0.0373312 0.109664 
3896 2 -0.0279625 -0.0178317 -0.108436 0.113394 
460 1 0.0870122 -0.0578098 -0.0166734 0.105788 
913 1 0.0462521 -0.008299 -0.00362123 0.0471301 
1068 1 -0.0766199 0.0153497 -0.0504166 0.0929949 
265 1 -0.0905408 -0.0377398 -0.0703697 0.120722 
1287 1 0.0303698 0.08068 0.0183297 0.0881337 
3799 2 0.122842 -0.0890287 -0.13263 0.201512 
554 1 0.111884 -0.0719246 0.0100249 0.133385 
1414 1 0.00334514 0.0622509 -0.0586701 0.085607 
213 1 0.0114744 0.0112087 0.0591957 0.0613305 
341 1 -0.11618 -0.038887 -0.0162423 0.123587 
3682 2 8.53142e-05 0.0896494 -0.0597381 0.10773 
754 1 -0.0816958 0.0146777 0.0393843 0.0918736 
112 1 -0.0385036 0.0394565 0.00162669 0.0551542 
1041 1 -0.012105 -0.00410513 -0.00116226 0.0128348 
119 1 0.0368601 0.0812735 -0.00514245 0.0893896 
3998 2 0.0109206 -0.0220708 0.152215 0.154194 
995 1 -0.0638304 0.0447711 0.0118502 0.0788619 
4128 2 0.0594847 -0.0218293 0.215109 0.224247 
8 1 0.0153786 0.074261 0.0115416 0.0767098 
94 1 0.0485977 0.00956808 -0.0151318 0.0517905 
48 1 0.0594488 -0.0139074 0.0818768 0.102134 
437 1 0.0397873 -0.0500057 -0.0515822 0.0821238 
3866 2 0.0688648 0.0128276 -0.0524589 0.0875148 
2206 1 0.0216785 0.013738 -0.0125576 0.0285725 
3490 2 -0.0745037 0.0204471 -0.0731906 0.106422 
3072 1 -0.0370208 -0.102623 0.0532008 0.121377 
3002 1 0.0893763 0.0927474 0.00824011 0.129066 
92 1 0.041878 0.0961717 0.0775622 0.130456 
335 1 0.000992528 0.0599498 -0.0293386 0.0667512 
2192 1 -0.00667926 0.0279634 0.120348 0.123734 
1186 1 0.0378293 -0.0326023 -0.0277754 0.057144 
1114 1 0.052471 -0.0487707 0.0222616 0.0750158 
1821 1 -0.0953533 -0.0777342 -0.0577582 0.135908 
1922 1 0.0603463 -0.0879036 0.0573175 0.121054 
451 1 -0.117792 -0.0281527 -0.01511 0.122048 
3960 2 -0.0125025 -0.0385146 0.0481364 0.0629031 
100 1 -0.04929 -0.00633478 -0.0700835 0.0859146 
1180 1 0.0382678 -0.0518773 -0.102027 0.120686 
165 1 0.0714005 -0.0165481 -0.0275055 0.0782843 
388 1 -0.0656023 -0.0185236 -0.0894713 0.112481 
3742 2 0.0356545 -0.0566646 0.0143076 0.0684604 
323 1 -0.124733 0.128924 0.00921406 0.179624 
288 1 -0.105746 0.0209303 -0.0225975 0.11014 
3942 2 -0.101156 0.103991 0.108549 0.181189 
66 1 0.0598668 0.0230001 0.0744403 0.0982568 
340 1 0.0669379 0.0622371 -0.0436417 0.101285 
138 1 -0.0174391 -0.00992214 0.0363889 0.0415539 
879 1 -0.0359822 -0.0411158 -0.0601858 0.0812869 
3808 2 0.074637 0.152664 -0.0384335 0.174225 
834 1 0.0596621 0.0279957 0.00320283 0.0659816 
18 1 -0.0767072 -0.0635372 -0.089398 0.133839 
3679 2 0.0898065 -0.0538899 -0.0695343 0.125715 
52 1 0.0192391 -0.12619 0.0139984 0.128413 
407 1 0.0232708 0.0582178 -0.0719938 0.0954669 
360 1 0.0712969 -0.0312554 -0.0626476 0.0999243 
2885 1 -0.0735334 -0.00990304 -0.00535464 0.0743902 
3526 2 -0.046882 -0.231753 -0.0352548 0.239061 
310 1 -0.0911327 -0.0444751 -0.0417908 0.10968 
326 1 0.116912 -0.0254556 0.0845291 0.146498 
227 1 -0.0444853 -0.0612252 -0.0586596 0.0957518 
2068 1 -0.12729 -0.00627866 -0.15044 0.197166 
456 1 0.0783504 -0.016144 0.0525233 0.095698 
279 1 0.0112287 0.0455402 0.140889 0.148491 
305 1 0.0101662 0.0411123 -0.030752 0.0523379 
49 1 0.00508584 0.0743553 0.0386682 0.0839631 
3512 2 0.0301247 -0.142663 0.0323363 0.149352 
11 1 -0.0791624 -0.187101 0.010697 0.20344 
189 1 -0.113137 0.112659 0.0295731 0.162378 
2271 1 -0.103378 -0.0719235 -0.0391033 0.131867 
319 1 -0.125091 -0.0608405 0.0130245 0.13971 
3566 2 0.0476438 0.0440952 -0.0645157 0.0915238 
71 1 0.0353734 -0.00548294 0.0594141 0.0693641 
1560 1 -0.036408 0.0180956 0.0564179 0.0695412 
190 1 -0.074837 0.010188 0.118082 0.14017 
123 1 0.0831507 -0.00598876 0.107965 0.136405 
27 1 -0.0270867 -0.0254719 -0.00905985 0.0382699 
162 1 0.0143171 0.0468259 -0.0784089 0.0924424 
255 1 -0.126564 -0.0113313 -0.00592867 0.127209 
304 1 -0.0641669 -0.0104964 -0.0829735 0.105414 
321 1 0.0196246 -0.0350987 0.141643 0.14724 
682 1 -0.103318 0.00660186 0.00569673 0.103686 
3469 2 0.0190215 0.00489206 -0.0802815 0.082649 
3539 2 0.0144398 0.00643301 0.112468 0.113573 
128 1 0.0378938 -0.0821572 -0.0983889 0.133664 
3562 2 0.111064 0.0158455 0.142188 0.181118 
560 1 -0.182671 -0.05781 -0.0680855 0.203338 
212 1 -0.028167 0.0615892 -0.0726166 0.0992964 
355 1 0.0116955 0.0453441 0.0756739 0.0889911 
156 1 0.0052352 0.0778006 0.053765 0.0947155 
3620 2 0.0677783 -0.0716414 -4.85066e-05 0.0986225 
1823 1 0.211557 -0.161628 -0.0888214 0.280659 
1805 1 -0.143324 0.0346614 0.0980935 0.177103 
2599 1 -0.083721 0.0447175 0.103847 0.140688 
327 1 0.113302 0.0292691 0.046754 0.126016 
137 1 0.0752526 0.0445871 -0.0100909 0.0880499 
2334 1 0.00833462 0.0134748 0.0315802 0.0353319 
3698 2 0.01951 -0.0577493 -0.0181999 0.063615 
555 1 -0.0310391 -0.0450009 -0.0359562 0.065432 
4178 2 -0.0175267 -0.0770333 0.0411102 0.0890582 
290 1 0.000578439 -0.00215721 -0.0248031 0.0249034 
284 1 0.029876 0.0340045 -0.00914662 0.0461795 
3543 2 -0.0758972 -0.0657349 0.0063768 0.100609 
366 1 0.0314447 -0.0117667 0.104126 0.109405 
55 1 0.0215194 0.0514033 -0.00700451 0.0561645 
273 1 -0.0363279 0.00224233 -0.0867008 0.0940307 
3468 2 0.10906 -0.0255255 0.119101 0.163495 
316 1 0.153681 0.0464478 0.123918 0.202808 
81 1 -0.0522905 -0.041526 0.000270104 0.0667741 
322 1 0.0476379 -0.0569624 0.0515493 0.0903959 
239 1 0.0288818 -0.00730453 -0.054391 0.0620153 
734 1 -0.00286608 -0.0561186 -0.0705422 0.0901871 
384 1 0.0391763 -0.0925425 -0.0970289 0.139691 
3476 2 0.00850441 0.0935834 0.0146676 0.0951069 
311 1 -0.049586 -0.100065 -0.0493609 0.1221 
3471 2 0.0372857 0.0378035 0.066918 0.0854245 
1938 1 0.0775562 -0.0528061 0.0171974 0.0953897 
139 1 0.178851 0.00411504 -0.038005 0.182891 
727 1 0.0932797 -0.114416 -0.00613459 0.147749 
1885 1 -0.00589741 0.0456502 -0.0340917 0.0572797 
2184 1 0.201685 0.10785 -0.0590551 0.236212 
2494 1 -0.160423 0.00749897 -0.125163 0.203611 
2091 1 -0.00137619 0.0254023 -0.0665333 0.0712309 
281 1 0.020062 0.102426 0.131494 0.167882 
863 1 -0.0219507 0.0685608 -0.0888975 0.11439 
176 1 -0.0575007 0.0392149 -0.0823035 0.107787 
3710 2 0.00566472 0.0656852 -0.0618108 0.0903726 
3572 2 -0.0322058 -0.119326 -0.103874 0.161449 
4197 2 -0.0424802 0.074887 -0.0988327 0.131075 
343 1 -0.0574027 -0.0371292 -0.108126 0.127925 
282 1 -0.0546592 -0.0174326 -0.0667389 0.0880091 
1038 1 0.0153495 0.066562 0.0784722 0.104038 
408 1 0.195849 -0.0169323 0.0119863 0.196945 
412 1 0.117553 -0.0268047 -0.00231687 0.120593 
820 1 0.129731 0.0379322 0.107923 0.172964 
585 1 -0.094533 -0.0263591 -0.116904 0.152636 
3609 2 0.0902619 -0.128954 0.0341748 0.161072 
719 1 -0.0132867 0.0289793 -0.0189162 0.0370697 
608 1 0.0567181 0.0917264 0.0870095 0.138569 
106 1 0.0135378 0.0458199 0.0450658 0.0656785 
1047 1 -0.121792 -0.0527351 -0.0405768 0.138783 
3573 2 0.0433348 0.0539251 -0.0789434 0.104966 
751 1 -0.0105596 -0.0220195 -0.0842278 0.0876966 
259 1 0.0736404 -0.0177134 -0.0108043 0.0765075 
245 1 -0.0575105 -0.0397688 0.00516771 0.0701122 
613 1 -0.0560097 -0.0906875 0.0949196 0.142727 
4296 2 -0.0147427 0.0579945 0.02122 0.0634901 
272 1 -0.106261 -0.137277 -0.0427928 0.178795 
4239 2 -0.134251 -0.0921494 -0.0865331 0.184398 
88 1 0.0836345 0.107972 0.10749 0.173801 
4 1 0.0617307 0.00321524 -0.0674909 0.0915207 
361 1 0.127408 0.0968929 -0.154693 0.2226 
358 1 -0.0615873 0.0203813 0.0554699 0.0853539 
194 1 0.035848 0.0401614 -0.103371 0.116549 
2373 1 0.0174808 0.00117176 -0.0884425 0.0901611 
1982 1 0.0528211 0.0298507 0.0425722 0.0741183 
3953 2 0.0129158 0.0536959 0.0990677 0.113422 
414 1 0.0240197 0.0343804 -0.117765 0.125011 
3186 1 0.0941355 -0.0522948 -0.0181986 0.109213 
177 1 0.0694898 -0.0526057 0.00635152 0.0873873 
1962 1 -0.0211322 0.0906143 0.159351 0.184527 
706 1 -0.00493564 0.0480536 -0.0232851 0.0536256 
1544 1 0.0235598 -0.143767 0.0738725 0.163344 
4160 2 -0.0233859 0.0704601 -0.0312563 0.0805511 
19 1 -0.0653576 0.0680829 -0.101719 0.138758 
3624 2 -0.0401974 -0.0113193 -0.0808663 0.0910127 
115 1 0.0615682 -0.0307967 -0.0988662 0.120472 
1102 1 -0.0558114 -0.0373926 0.0646761 0.093253 
2048 1 0.11219 -0.00911947 -0.00739933 0.112803 
649 1 0.0296633 0.101332 -0.0242083 0.108325 
113 1 -0.00830314 -0.0529588 0.0196879 0.0571069 
1150 1 -0.0109661 0.00669806 0.0457829 0.047552 
620 1 0.028237 -0.0858534 -0.00720838 0.0906648 
739 1 -0.0171889 -0.0394705 -0.0784205 0.0894603 
2412 1 -0.00344547 0.0228328 -0.00895415 0.0247666 
3746 2 0.105927 0.0285424 -0.175876 0.207286 
1225 1 -0.02067 0.0230467 0.128404 0.132083 
241 1 0.123256 -0.0284951 0.00375434 0.126563 
83 1 0.0205956 -0.0235269 -0.00784001 0.032236 
1006 1 0.0543307 0.00714241 -0.00967257 0.0556453 
4046 2 -0.0795431 -0.0909338 -0.0287182 0.12418 
96 1 -0.0284418 -0.155769 0.0502556 0.166129 
411 1 0.126678 0.0464373 0.0633702 0.149062 
2454 1 -0.0623047 0.00450186 0.0531121 0.0819941 
404 1 -0.0672265 0.0912874 0.0820987 0.139975 
226 1 0.0395828 -0.0142734 0.0584236 0.0719989 
534 1 0.0544131 -0.0443799 0.123132 0.141746 
3538 2 -0.0633486 0.074272 -0.0595018 0.114323 
761 1 0.0541972 -0.0429527 0.0716044 0.0995463 
246 1 0.0391312 -0.0344141 0.00488658 0.0523399 
2229 1 -0.0453547 -0.149929 -0.0250466 0.158629 
146 1 0.0066226 -0.105708 -0.0634947 0.12349 
3608 2 0.011594 -0.00129528 0.0218372 0.0247581 
503 1 0.0161208 -0.00882269 0.00744303 0.0198272 
505 1 0.135523 -0.0586556 0.0228119 0.149423 
1430 1 -0.0513156 -0.0621094 -0.0660556 0.104184 
97 1 -0.0995939 0.0555893 -0.103408 0.153955 
1723 1 0.0299394 -0.00376149 -0.0937685 0.098504 
3561 2 0.058215 0.188949 -0.0629145 0.207482 
20 1 -0.0704707 -0.0308373 0.0177158 0.0789361 
263 1 -0.053487 0.158265 -0.009604 0.167335 
817 1 0.10448 -0.0840854 0.0196389 0.135544 
1034 1 0.00173125 0.0406766 0.0132045 0.0428012 
353 1 0.0300243 -0.0556689 0.19018 0.200422 
1260 1 0.0474894 0.119805 -0.0499837 0.138228 
998 1 0.0469867 0.121848 -0.0786668 0.152457 
1932 1 0.134634 -0.13327 -0.0458641 0.194913 
36 1 0.103318 -0.176314 -0.0715727 0.216527 
38 1 0.0385602 0.0439659 -0.024006 0.0632154 
3130 1 -0.0574942 -0.0495889 -0.058308 0.0957312 
1973 1 0.0964239 0.0538267 0.140988 0.179088 
307 1 0.0803312 -0.0306824 0.0102511 0.0866003 
2714 1 0.068765 0.0254112 0.0182507 0.0755476 
28 1 0.0860204 0.0509756 -0.00803824 0.100313 
1937 1 0.00654032 0.0684239 -0.0625774 0.0929545 
562 1 -0.0730001 -0.113247 -0.0125226 0.135317 
3011 1 -0.029183 0.0125015 -0.0181514 0.0365706 
410 1 0.0743632 -0.103769 0.0449841 0.135357 
693 1 0.082152 0.0795183 0.19376 0.224978 
367 1 -0.000624626 0.00518868 0.00697111 0.00871257 
318 1 0.0346111 0.0362206 -0.125195 0.134847 
735 1 0.143691 0.00851831 0.0244332 0.146002 
600 1 -0.00203287 0.0267837 0.0285542 0.0392026 
3590 2 0.0195092 0.0936265 0.0402542 0.103764 
3636 2 0.0560462 -0.0730867 0.0420635 0.101253 
26 1 -0.144415 0.0496355 0.0764793 0.170787 
1199 1 0.0211227 0.0800694 -0.0650523 0.105305 
614 1 0.0179897 -0.00443184 -0.0667864 0.0693086 
459 1 -0.0506536 -0.0756637 -0.0639169 0.111248 
3645 2 0.0677263 0.120896 0.0653028 0.15319 
574 1 0.0742814 -0.0766815 0.112062 0.154776 
780 1 0.139799 0.012832 0.00916625 0.140686 
161 1 -0.117244 -0.0493299 0.0998481 0.161707 
309 1 0.109 0.0925022 -0.0156434 0.143814 
365 1 0.0546802 -0.149185 -0.0689834 0.173219 
191 1 -0.0761011 0.09725 -0.0103136 0.123917 
1766 1 -0.0743532 -0.0139144 -0.0244803 0.0795066 
2775 1 0.0957465 -0.0514143 -0.0655854 0.126934 
1030 1 0.159929 -0.121528 -0.00992638 0.20111 
1505 1 0.162847 0.175262 0.124971 0.269914 
3872 2 -0.0520354 0.0216504 -0.00167599 0.0563847 
580 1 -0.0324496 -0.0329104 0.0141506 0.0483354 
2054 1 -0.0546822 -0.0917592 -0.0401747 0.114122 
2064 1 0.102558 0.013992 -0.0333121 0.108736 
529 1 -0.00748328 0.0389997 -0.0827337 0.0917706 
402 1 -0.0251046 0.0684174 0.0273919 0.0778556 
124 1 -0.0664771 -0.104687 0.0493759 0.133479 
744 1 0.114934 -0.017766 0.0556701 0.128937 
185 1 0.0623547 -0.0295749 0.0835068 0.108334 
315 1 -0.00113407 -0.0330511 -0.0359126 0.0488198 
655 1 -0.00720675 -0.0785138 0.168115 0.185686 
765 1 -0.00238658 0.0452471 0.0271972 0.0528458 
140 1 0.00751495 0.0897023 -0.162345 0.185631 
59 1 -0.0201035 -0.00152146 0.0805494 0.0830342 
54 1 0.0106256 0.0542993 0.0248026 0.0606341 
3506 2 -0.0374233 0.130423 -0.118249 0.179982 
666 1 -0.000989577 -0.178757 0.0650719 0.190235 
43 1 0.0918855 0.076791 0.0926592 0.151412 
334 1 -0.0629549 -0.0535586 0.0487465 0.0959587 
267 1 0.142915 0.0365446 -0.117079 0.188329 
99 1 0.0769999 0.118429 0.0739431 0.159443 
1189 1 -0.112585 -0.0204472 -0.181431 0.214501 
201 1 -0.0385431 -0.0700104 -0.0512805 0.0949564 
380 1 0.00333782 0.114895 -0.156193 0.193928 
1777 1 0.00486256 -0.0176072 -0.0546767 0.0576472 
2597 1 0.241475 -0.0198271 0.0353223 0.244849 
2484 1 0.140135 -0.0366389 -0.0361972 0.1493 
308 1 0.00609722 -0.00281937 -0.071855 0.0721683 
3918 2 -0.0365944 0.130063 0.0818712 0.157982 
89 1 -0.0990438 0.0474459 -0.0141457 0.110729 
300 1 -0.0172871 -0.00726062 0.0135303 0.0231221 
3582 2 0.0486826 -0.00200849 -0.0256279 0.0550529 
712 1 -0.0641265 0.0807468 -0.0152178 0.10423 
3836 2 -0.0187329 0.0722015 -0.056741 0.0937204 
268 1 -0.0247355 -0.0157049 0.0353536 0.045917 
788 1 -0.0281736 0.12146 -0.07633 0.146194 
4091 2 -0.0139018 0.150586 -0.014195 0.151891 
371 1 0.00770985 0.0607902 0.124889 0.139112 
3505 2 0.0733418 -0.0174518 0.0162463 0.0771203 
266 1 0.133937 -0.0738531 -0.0900631 0.177496 
3571 2 0.00906539 -0.0670307 0.0737785 0.100093 
637 1 -0.0169012 -0.00314127 -0.0889915 0.0906366 
157 1 -0.0708312 -0.0228455 0.0939058 0.119822 
257 1 0.00574298 0.00975632 0.0163114 0.0198552 
571 1 -0.0164157 0.0471919 0.005831 0.0503046 
665 1 -0.154921 -0.036699 0.164837 0.229169 
448 1 -0.143874 -0.105389 0.0185478 0.179306 
827 1 0.0748804 0.0924723 0.027103 0.122036 
3475 2 0.0931773 0.0454045 0.0603216 0.119926 
73 1 -0.0385763 0.0718649 0.00280716 0.0816123 
373 1 0.103304 0.00306674 0.0968043 0.141606 
247 1 0.0343903 -0.0275163 -0.0643127 0.0779485 
107 1 0.0617691 0.0504356 -0.0673446 0.104377 
675 1 -0.0672712 0.0685752 -0.109094 0.14536 
434 1 0.0363152 0.0695887 -0.0176905 0.0804632 
159 1 -0.0606841 0.0826701 -0.0314195 0.107257 
32 1 0.0701119 0.117707 1.05013e-05 0.137006 
3579 2 0.0790793 -0.0466283 -0.10558 0.13991 
394 1 -0.0615135 0.00956427 0.0609486 0.0871213 
260 1 -0.0194445 0.0691772 0.0267898 0.0766894 
3972 2 -0.0774911 0.0508053 0.0847208 0.125553 
1801 1 -0.0531007 0.039035 0.0519447 0.0839147 
2122 1 -0.00305211 0.0241803 0.16461 0.166405 
1966 1 -0.0046573 -0.0742377 -0.103564 0.127508 
291 1 -0.0112297 0.0118541 0.0428816 0.0458853 
2047 1 0.0895617 0.044669 0.0408324 0.108092 
1899 1 0.0371563 0.0587842 -0.00579802 0.0697839 
622 1 -0.0317579 0.1192 -0.00693501 0.123553 
1993 1 -0.00811939 -0.0100797 0.00841917 0.0154404 
62 1 0.0172612 0.0458461 0.0621315 0.079121 
2187 1 -0.0672784 0.0264416 -0.107482 0.12953 
4318 2 0.0863375 0.0192284 0.00632131 0.0886783 
44 1 -0.00178069 0.0145355 0.0950038 0.0961258 
824 1 0.0486075 -0.0131183 0.0746185 0.090015 
1282 1 0.0139348 -0.00321279 0.109688 0.110616 
3626 2 0.139479 0.090568 -0.0333051 0.169606 
819 1 0.0540119 0.0915804 0.0721794 0.128507 
773 1 -0.123913 -0.160688 0.0516214 0.20938 
270 1 -0.0528604 -0.0526813 -0.0398763 0.0846148 
14 1 -0.104903 -0.0514169 -0.00571365 0.116966 
3540 2 0.0615554 -0.0233471 -0.00305531 0.0659051 
997 1 0.060253 -0.0821374 -0.0603172 0.118386 
4275 2 -0.0367091 -0.0774926 -0.15617 0.178162 
164 1 0.031713 0.0544467 0.152281 0.164802 
234 1 0.0468934 -0.0138953 0.0809249 0.0945564 
1125 1 -0.0172063 -0.0153466 -0.0726069 0.0761797 
3985 2 -0.0320131 -0.00641974 0.0464325 0.0567629 
328 1 0.0209118 -0.00554662 -0.0428699 0.0480198 
3474 2 0.018504 0.00281461 -0.0698911 0.0723539 
543 1 -0.076088 0.00791205 0.00489671 0.0766549 
293 1 0.104405 -0.0735536 0.101027 0.16284 
3458 2 0.107531 -0.0371512 0.104696 0.154611 
390 1 -0.00754054 -0.00987488 -0.0960168 0.0968173 
3706 2 0.0958648 -0.220842 -0.12453 0.271051 
2169 1 0.0843068 0.102638 -0.0596008 0.145583 
1786 1 0.0412847 0.0102189 -0.0458823 0.0625623 
1478 1 -0.0309537 0.0547538 0.136471 0.150268 
87 1 0.0292018 0.00842274 -0.0474641 0.0563607 
4090 2 -0.055553 -0.0376125 0.0402837 0.0782536 
142 1 0.00627007 0.0248746 0.0235508 0.0348239 
1650 1 -0.0827665 -0.0878874 -0.0804085 0.145052 
153 1 0.0508172 -0.00503925 0.0116433 0.0523769 
374 1 0.0347722 -0.0502756 -0.0650764 0.0892843 
602 1 0.0261713 -0.0770333 -0.108774 0.135834 
1277 1 -0.0651938 0.00352863 0.0353332 0.0742369 
76 1 0.0213845 -0.0292318 0.146711 0.151116 
1370 1 0.0594788 -0.0234475 0.0854317 0.106706 
221 1 -0.0198862 0.0838599 -0.00942563 0.0866994 
604 1 -0.0809704 0.0451794 0.0866582 0.126913 
1161 1 -0.0514251 -0.0747838 0.0204178 0.0930271 
1718 1 -0.0964801 0.0379748 -0.131595 0.167535 
178 1 -0.052561 -0.260447 -0.0313006 0.267535 
295 1 -0.161912 -0.0811655 -0.00273538 0.181138 
1472 1 -0.10163 -0.00403849 -0.0157768 0.102926 
4159 2 -0.00118706 -0.0300244 -0.0236645 0.0382476 
3467 2 0.103698 -0.0147171 -0.0277293 0.108346 
3531 2 -0.0682683 -0.0904188 0.139903 0.180025 
2720 1 -0.0520561 0.087712 -0.072463 0.125116 
1851 1 -0.0232973 0.00168057 -0.00484635 0.0238553 
732 1 0.012716 -0.0757225 0.0262927 0.0811597 
446 1 -0.287795 0.09972 0.0695935 0.312431 
3878 2 0.0631278 0.0667739 -0.0381014 0.0994766 
3185 1 -0.189454 -0.0122926 0.0239598 0.191358 
110 1 -0.0796649 0.0112508 0.0302826 0.0859658 
2963 1 -0.0467112 0.0240036 -0.0301411 0.0605524 
2608 1 -0.0285029 -0.00269238 -0.00739223 0.0295687 
3301 1 0.0329071 0.0168839 0.115983 0.121737 
3759 2 -0.036963 -0.0569881 -0.0357546 0.0767613 
4171 2 -0.0901826 0.0277411 0.0386145 0.101949 
2118 1 -0.00666706 0.0584024 -0.0372499 0.0695905 
1742 1 0.006143 -0.0078464 0.0459391 0.0470075 
642 1 0.0352646 -0.190978 0.0202765 0.195263 
3366 1 -0.0462294 0.0283453 0.0970713 0.111191 
144 1 0.131458 0.160519 0.0179021 0.20825 
681 1 0.0547847 -0.0234572 -0.118829 0.132936 
1666 1 0.0627886 -0.0652632 -0.0345068 0.0969144 
183 1 -0.10125 -0.109074 -0.0423243 0.154726 
694 1 -0.154912 0.00720188 0.0656966 0.168421 
444 1 -0.0571996 0.0468842 -0.140252 0.158558 
869 1 -0.0561014 -0.150861 0.141812 0.214516 
920 1 -0.043353 -0.131903 -0.00374697 0.138896 
53 1 0.0747013 -0.011241 0.0496613 0.0904041 
1450 1 -0.257701 -0.0318668 -0.0954178 0.27664 
1579 1 0.0647285 -0.104121 0.0616928 0.137248 
51 1 0.124835 0.00232836 -0.0502943 0.134606 
4187 2 -0.109616 -0.0880386 -0.16182 0.214364 
1694 1 0.00190674 -0.128056 0.207604 0.243929 
1590 1 0.0358905 0.0151955 -0.0753713 0.084852 
2005 1 0.0369815 -0.0740486 0.125345 0.150207 
736 1 -0.1132 0.0145285 -0.0227527 0.116375 
363 1 0.116914 0.00400472 0.00795135 0.117252 
230 1 0.0101963 0.0227596 0.104059 0.107006 
2538 1 0.0762765 -0.0683729 -0.0403954 0.110112 
357 1 -0.0634588 -0.000420219 -0.0418217 0.0760016 
3849 2 0.169475 -0.0512342 -0.107359 0.207057 
4102 2 0.00156303 -0.1268 0.0512795 0.136786 
1032 1 0.0714773 0.0340703 0.0569282 0.0975223 
78 1 0.00631384 0.0631946 -0.0326461 0.0714086 
564 1 0.264112 -0.0640534 0.0951591 0.287947 
797 1 0.153503 -0.0626334 -0.0373522 0.169945 
1476 1 0.226247 0.0146035 -0.0266657 0.22828 
872 1 -0.106121 0.00775266 -0.0876605 0.137863 
475 1 -0.0193781 -0.0426618 0.011799 0.0483193 
4119 2 0.25362 -0.120621 -0.103223 0.299211 
576 1 -0.151089 0.0249782 0.0612988 0.164953 
507 1 0.0660131 -0.107298 0.0166201 0.127071 
248 1 0.0619649 -0.0421447 -0.0162171 0.0766734 
3597 2 -0.0769999 0.0668556 0.09516 0.139478 
539 1 0.01609 -0.01599 0.0619737 0.0659947 
63 1 0.0704873 0.00868622 0.105292 0.127005 
57 1 -0.0408677 -0.043695 0.0172622 0.0622688 
854 1 -0.0430593 0.0383037 0.016467 0.0599369 
668 1 0.101433 -0.13551 -0.104761 0.199064 
385 1 -0.094971 -0.247983 0.0762795 0.276286 
752 1 0.0209611 0.0575047 -0.0141843 0.062828 
3650 2 -0.0158171 0.155984 -0.0612801 0.168334 
3736 2 -0.0894897 -0.17117 0.0275863 0.195112 
254 1 -0.146836 -0.156847 0.0137141 0.21529 
3637 2 -0.0087106 -0.00794459 0.0820095 0.0828526 
731 1 -0.0110671 -0.036033 -0.0162893 0.0410634 
2304 1 0.0988422 -0.135178 -0.0266261 0.169564 
610 1 -0.186236 0.0159146 -0.109586 0.216671 
292 1 -0.140167 0.0169609 0.00394313 0.141245 
313 1 -0.117037 0.011355 0.03207 0.121882 
2133 1 0.00436943 -0.125899 -0.0277674 0.128999 
646 1 -0.109529 -0.033853 -0.0888812 0.14506 
271 1 0.0239962 0.106731 0.0593317 0.124449 
584 1 -0.0498802 0.111997 -0.0879519 0.150887 
3649 2 -0.0914048 0.0251483 0.0414573 0.10347 
1148 1 -0.038323 0.124672 0.13966 0.191093 
779 1 -0.0922006 -0.0671544 0.0162382 0.115214 
621 1 -0.128996 0.0358776 0.0623305 0.14769 
16 1 -0.0385959 0.0058929 0.134083 0.139652 
3635 2 -0.0634876 -0.216794 0.0327946 0.228267 