ITEM: TIMESTEP
72
ITEM: NUMBER OF ATOMS
4320
ITEM: BOX BOUNDS pp pp pp
0.0000000000000000e+00 1.9309999999999999e+01
0.0000000000000000e+00 1.9309999999999999e+01
0.0000000000000000e+00 9.6549999999999994e+00
ITEM: ATOMS id type c_displacement[1] c_displacement[2] c_displacement[3] c_displacement[4] 
4012 2 0.0393413 -0.0721885 -0.0588056 0.101079 
2361 1 -0.0444373 -0.0941926 -0.115074 0.155206 
79 1 0.0173363 -0.0640699 -0.0214417 0.0697513 
781 1 0.0563945 0.0104191 0.15055 0.161103 
461 1 0.015924 0.0687752 0.0306632 0.0769664 
3704 2 0.017119 -0.101717 0.022753 0.105627 
629 1 -0.0393427 0.108907 0.0410271 0.122849 
1571 1 0.0246733 -0.042669 -0.041797 0.064625 
58 1 0.0713944 0.142268 0.0565436 0.168922 
2372 1 -0.0634734 -0.0323722 -0.0203081 0.0740895 
372 1 0.0336671 -0.0905945 -0.0124126 0.0974419 
3504 2 -0.0474729 -0.0830155 0.0483352 0.107152 
4130 2 0.0701005 -0.0202075 -0.10643 0.129034 
1262 1 0.052711 0.0506214 -0.0508325 0.089022 
907 1 -0.117523 -0.0556017 -0.140397 0.191349 
3659 2 -0.00684976 0.11817 -0.0877656 0.147356 
1298 1 0.0305357 0.0788336 -0.107516 0.136773 
1716 1 0.0599661 0.0485273 -0.0711669 0.104955 
1182 1 0.0406948 0.0352863 -0.0479849 0.072137 
683 1 -0.0031428 -0.0619388 0.0341773 0.0708123 
1958 1 -0.0394021 -0.0359598 0.0182126 0.0563678 
1554 1 0.0470588 -0.0919186 -0.0797016 0.130445 
1037 1 0.00768128 -0.117101 0.0137804 0.118159 
749 1 -0.0678343 -0.126994 0.0135357 0.14461 
3628 2 0.0399008 0.057742 -0.0106716 0.0709937 
946 1 -0.0942439 -0.039025 -0.0143307 0.103006 
2232 1 -0.0642443 -0.154243 -0.102021 0.195771 
7 1 0.0229209 -0.0463367 0.0468876 0.0697918 
501 1 -0.00742817 -0.00110459 -0.0353208 0.0361103 
179 1 -0.0434751 -0.0184226 0.0170092 0.0501875 
714 1 -0.12394 0.00265235 0.073196 0.143965 
4166 2 -0.00945396 -0.08306 0.109961 0.13813 
276 1 -0.0313297 -0.0622766 0.0958607 0.118529 
767 1 -0.00883741 -0.0230194 0.0225183 0.0333926 
3890 2 -0.178068 -0.046083 -0.0764685 0.199196 
6 1 0.0233115 0.178389 -0.00155937 0.179912 
2086 1 0.0486534 0.0210448 0.0269791 0.0594803 
224 1 0.131092 -0.0650747 0.00810916 0.14658 
3660 2 0.002483 -0.0270636 0.0903266 0.0943266 
596 1 -0.0853192 -0.0118755 -0.0172095 0.087844 
1214 1 0.0646806 -0.055779 -0.0895633 0.12376 
3686 2 -0.013387 0.00368457 0.0469036 0.0489156 
427 1 -0.133832 0.0559076 0.0799678 0.165625 
350 1 0.0264125 0.0673111 -0.0802697 0.108035 
85 1 -0.0392709 0.0591608 0.0870699 0.112354 
598 1 0.0342002 -0.115806 0.0798833 0.144782 
3554 2 0.0784834 -0.0289289 -0.0409935 0.0931504 
29 1 -0.190655 0.0688645 -0.0350323 0.205716 
464 1 0.0437423 -0.0136046 -0.138095 0.145495 
3619 2 -0.0800355 0.0305225 0.12916 0.154983 
12 1 -0.0604885 -0.0306228 -0.0829441 0.107128 
364 1 -0.149944 -0.026862 -0.084139 0.174024 
1849 1 -0.0917442 -0.0908124 -0.0977736 0.161937 
3663 2 -0.198437 0.0626715 -0.0211271 0.209168 
3517 2 0.0119976 0.0106228 0.139741 0.140657 
25 1 0.223688 0.0314873 -0.0719393 0.237071 
4163 2 0.0114403 -0.0383357 -0.0190226 0.0442986 
399 1 0.0587222 0.0422513 -0.0306176 0.0785552 
4265 2 -0.0536538 0.0693282 0.109177 0.140017 
527 1 -0.00555953 0.0886906 -0.042883 0.0986706 
200 1 0.0592395 0.0449661 0.122916 0.143665 
1951 1 0.126971 0.0965637 0.0160519 0.160324 
644 1 0.029142 -0.0368793 0.044863 0.0649771 
193 1 0.0415219 0.0723195 0.0663632 0.106575 
550 1 0.048493 -0.0204398 -0.0107635 0.0537142 
69 1 0.0250007 -0.0462075 -0.0161905 0.0549755 
842 1 -0.00653436 0.034274 -0.0325291 0.0477027 
578 1 0.0264471 -0.0485489 0.00592733 0.055602 
172 1 -0.0375687 -0.0267933 0.0408843 0.0616507 
381 1 -0.0327837 -0.0170124 0.0189707 0.0415221 
3524 2 0.0328959 -0.0359596 0.0893961 0.101818 
688 1 -0.0331833 0.117846 0.00711374 0.122635 
3651 2 -0.0552498 0.0418796 0.0832117 0.108308 
2367 1 0.0381816 0.011703 -0.0660497 0.0771839 
1244 1 -0.121912 -0.0321394 -0.00400335 0.12614 
796 1 -0.0126866 0.124389 -0.0447148 0.13279 
691 1 0.0357419 -0.000239156 -0.0273823 0.0450259 
421 1 0.0823901 0.0601121 0.0178344 0.103536 
597 1 0.0193989 0.0400807 0.0306745 0.0540713 
3617 2 0.103249 -0.0281681 -0.0285426 0.110763 
120 1 0.071952 0.215028 0.113452 0.253545 
769 1 -0.0881717 -0.0517402 0.0345024 0.107897 
2142 1 0.0200257 0.0429052 -0.0248109 0.0534552 
3611 2 0.128277 0.00242848 0.184082 0.224381 
1915 1 -0.000226812 0.098261 0.0766798 0.12464 
2140 1 0.0501747 -0.0383913 0.0821686 0.103649 
3828 2 0.0911946 0.0744529 0.0742555 0.139189 
3204 1 -0.0244338 0.0427679 0.0677381 0.083753 
175 1 0.108885 -0.0319004 -0.0564591 0.126733 
2011 1 0.186395 0.104215 0.0326755 0.216036 
75 1 -0.0378507 0.134141 -0.0586233 0.151205 
547 1 0.0100586 -0.0225217 -0.138457 0.140636 
4316 2 -0.0861607 0.0784625 -0.0949982 0.150349 
559 1 0.013373 0.029839 -0.0391612 0.0510177 
717 1 0.00199994 0.0736301 -0.0835561 0.111387 
242 1 -0.0133581 -0.0396605 0.117576 0.124802 
3510 2 -0.124697 0.0093876 0.166315 0.208082 
130 1 0.108799 0.00211764 0.0968684 0.145688 
143 1 0.0249547 0.0841601 -0.0451208 0.0986992 
202 1 -0.144767 -0.121877 -0.054114 0.196824 
182 1 -0.144435 0.0651817 0.0451128 0.164758 
84 1 0.0352458 0.00746742 0.00118605 0.0360477 
3633 2 -0.0491548 -0.0245385 -0.0233826 0.0597083 
35 1 -0.172253 0.0404973 0.137262 0.223947 
3612 2 0.00756226 0.0366367 0.0244696 0.0447012 
40 1 0.121688 0.108891 0.0921068 0.18748 
4005 2 0.0811104 -0.0861667 0.0710554 0.138031 
718 1 -0.113419 -0.0113953 -0.0464271 0.123082 
134 1 0.0091665 0.0323396 0.0987543 0.104318 
511 1 -0.0776023 -0.0343347 -0.00188154 0.0848795 
757 1 -0.0176047 0.182197 0.00451919 0.183102 
3555 2 -0.0681731 0.103029 0.0680706 0.141054 
3481 2 -0.0117623 -0.0368105 -0.0431713 0.0579407 
135 1 -0.020679 -0.0425649 -0.0968084 0.107756 
369 1 0.108393 -0.0435293 0.0105391 0.117281 
2148 1 -0.0809075 -0.0703874 0.0809241 0.134347 
3462 2 0.0521136 -0.0642878 -0.164902 0.184503 
1914 1 -0.00245864 0.0165559 -0.0377824 0.0413237 
3661 2 0.0999137 -0.141763 -0.00632438 0.17355 
1871 1 0.0121208 0.040983 -0.0359961 0.055877 
320 1 -0.0878283 -0.0773677 -0.0558465 0.129686 
582 1 -0.073806 -0.0911141 -0.0473912 0.126471 
766 1 -0.0162943 0.0233198 -0.0358051 0.045731 
3552 2 0.0542803 0.00734361 -0.0214077 0.0588096 
2290 1 -0.0115902 0.0639655 0.025793 0.0699371 
1794 1 -0.0492463 0.114277 0.0747591 0.145167 
753 1 -0.0222495 0.019621 0.0566 0.0639029 
396 1 0.0329629 -0.00966539 0.174875 0.178217 
496 1 0.0143909 -0.0518117 -0.0901685 0.104985 
480 1 -0.0409171 -0.0733751 0.103301 0.133151 
253 1 0.0622431 -0.0081438 -0.0642521 0.0898268 
4033 2 -0.00104 0.00230229 -0.0623333 0.0623845 
347 1 -0.01823 -0.00402557 -0.1086 0.110193 
586 1 -0.103036 0.0355166 -0.0986154 0.146979 
3671 2 -0.0309974 0.0215908 -0.0369488 0.0528414 
37 1 0.0801277 -0.171775 -0.0437517 0.194529 
782 1 0.0345769 -0.14256 -0.0673171 0.161402 
481 1 0.108178 -0.0700112 -0.0668857 0.145182 
392 1 -0.0189408 0.0201146 -0.0847383 0.0891287 
333 1 0.031031 -0.0273812 -0.0260861 0.0489197 
342 1 -0.0225202 -0.0630608 -0.0614 0.0908503 
1179 1 0.0226671 -0.0853952 -0.0707076 0.113162 
517 1 0.0399809 -0.0955303 -0.029062 0.10756 
1824 1 0.0273098 -0.0478512 0.0613969 0.0824933 
34 1 0.135146 -0.0251371 0.0432127 0.144096 
398 1 -0.0135524 -0.0590282 -0.0776773 0.0984975 
170 1 -0.0635366 -0.0582955 -0.0425656 0.0961618 
235 1 0.0490712 -0.0670855 0.0896264 0.122235 
3852 2 -0.0572846 0.00706021 -0.0149909 0.0596331 
816 1 0.0469834 -0.0588887 -0.124192 0.145255 
3931 2 -0.170736 -0.115492 0.0698003 0.217626 
274 1 -0.0165718 -0.0715635 -0.0481916 0.0878543 
30 1 -0.0150156 -0.0665062 -0.0334479 0.0759428 
2066 1 0.0936077 -0.0319159 0.155944 0.184661 
1082 1 -0.0356934 -0.153831 0.142957 0.213013 
1372 1 0.00923101 -0.0533121 0.105467 0.118536 
1265 1 0.043165 -0.0241735 -0.0490554 0.0696707 
601 1 -0.0475142 0.0703313 0.010682 0.0855464 
540 1 -0.0666654 -0.118647 -0.0236877 0.13814 
589 1 -0.0347195 0.123592 0.149023 0.196693 
958 1 0.135881 -0.0189249 0.0649892 0.151807 
504 1 -0.0743816 0.0777554 -0.0358555 0.11342 
1349 1 -0.154346 -0.0151548 -0.03896 0.159907 
9 1 0.0344866 -0.127584 -0.0128801 0.132789 
149 1 -0.0233329 0.0328179 -0.0052086 0.0406026 
163 1 -0.00830059 -0.232684 0.077352 0.245345 
4247 2 0.0463703 -0.104672 -0.0797844 0.139542 
1584 1 0.176059 -0.00609242 -0.0632798 0.187185 
3570 2 -0.0427928 -0.111859 -0.0646535 0.136102 
237 1 0.00462154 0.0686368 0.118201 0.136762 
490 1 0.0424435 -0.11799 0.00409817 0.125459 
50 1 0.0103051 0.0186806 0.0193108 0.0287762 
152 1 0.106824 -0.00757214 -0.170752 0.201556 
3652 2 -0.0769784 -0.056163 -0.0132723 0.0962087 
3823 2 0.0905155 0.0845288 -0.165276 0.206529 
902 1 -0.00175207 0.0576158 0.00997127 0.0584985 
3574 2 -0.0163158 0.047061 -0.0335884 0.0600759 
770 1 -0.0152778 -0.0448968 -0.0744724 0.0882909 
154 1 -0.06612 -0.065517 -0.00666286 0.0933205 
116 1 0.0904596 -0.0483092 0.104734 0.146581 
710 1 -0.087005 -0.163767 -0.0929041 0.207414 
1956 1 -0.0703868 -0.0153489 0.0141816 0.0734235 
1810 1 -0.111384 -0.00623401 0.0239339 0.114097 
2072 1 -0.0542517 -0.0318943 -0.0372788 0.0731451 
1649 1 -0.0632816 0.00651433 -0.116845 0.13304 
186 1 -0.0818676 0.0860759 0.0620411 0.134017 
1063 1 -0.169736 0.166321 -0.148335 0.280137 
432 1 -0.180338 0.0502443 -0.130931 0.228449 
2495 1 0.00785106 -0.107312 0.0272545 0.110997 
3896 2 -0.0364232 -0.0161936 -0.112285 0.11915 
460 1 0.0866255 -0.0487007 -0.0242651 0.102296 
913 1 0.0428245 0.00218853 -0.0098258 0.0439918 
1068 1 -0.0856446 0.0202639 -0.059799 0.106403 
265 1 -0.0901393 -0.0433415 -0.0746985 0.124834 
1287 1 0.0256386 0.070451 0.0171796 0.0769144 
3799 2 0.133365 -0.0925267 -0.129426 0.207601 
554 1 0.124367 -0.0678953 0.0161294 0.142608 
1414 1 0.00448102 0.0635645 -0.0563991 0.0850963 
213 1 0.0105022 0.0142638 0.0618232 0.0643106 
341 1 -0.119077 -0.0352739 -0.00672367 0.124374 
3682 2 0.00727478 0.0965813 -0.0581155 0.112953 
754 1 -0.0769697 0.00851159 0.0432382 0.0886923 
112 1 -0.0317727 0.0409458 0.00131422 0.0518439 
1041 1 -0.0107346 0.00107465 -0.0113101 0.0156303 
119 1 0.040358 0.0845691 -0.0198665 0.0957882 
3998 2 0.0198514 -0.0324115 0.161751 0.166157 
995 1 -0.0605617 0.0383326 0.00594133 0.0719194 
4128 2 0.0667321 -0.0192877 0.227442 0.237813 
8 1 0.0134238 0.0750601 0.0114275 0.0771025 
94 1 0.0499389 0.0271287 -0.0164814 0.0591735 
48 1 0.06725 -0.0228629 0.0924381 0.116576 
437 1 0.0537181 -0.0471234 -0.0447495 0.0843135 
3866 2 0.0681102 0.009938 -0.0548789 0.088031 
2206 1 0.0223177 0.0167439 -0.0126467 0.0306329 
3490 2 -0.0628915 0.0196177 -0.0865183 0.108746 
3072 1 -0.035302 -0.107738 0.0564816 0.126664 
3002 1 0.0945365 0.076843 -0.00397708 0.121893 
92 1 0.0383646 0.0965619 0.0698716 0.125212 
335 1 0.0108174 0.0540051 -0.028808 0.0621568 
2192 1 -0.00039196 0.0315928 0.135312 0.138952 
1186 1 0.0350296 -0.0346368 -0.0301106 0.0577358 
1114 1 0.0553257 -0.0600443 0.0215904 0.0844535 
1821 1 -0.104814 -0.0780928 -0.0526671 0.140919 
1922 1 0.0581513 -0.0868578 0.0573565 0.119229 
451 1 -0.115904 -0.0276946 -0.0166145 0.120319 
3960 2 -0.0149481 -0.0377081 0.0531393 0.0668516 
100 1 -0.0548427 -0.0216656 -0.0598117 0.0839914 
1180 1 0.0415489 -0.051413 -0.102069 0.121605 
165 1 0.072052 -0.0102107 -0.0353 0.0808817 
388 1 -0.062138 -0.0123127 -0.0972099 0.116028 
3742 2 0.0224318 -0.0556188 0.0152515 0.0618809 
323 1 -0.117655 0.117983 0.023457 0.168264 
288 1 -0.111829 0.0220305 -0.0285528 0.1175 
3942 2 -0.104353 0.112351 0.109077 0.188176 
66 1 0.0555917 0.0257946 0.0801485 0.100894 
340 1 0.0791369 0.0673928 -0.0436885 0.112752 
138 1 -0.0192171 -0.00501873 0.0449449 0.0491379 
879 1 -0.0435872 -0.0367497 -0.0558904 0.0798381 
3808 2 0.0747202 0.166771 -0.0426412 0.187653 
834 1 0.072619 0.0297308 0.000839388 0.0784738 
18 1 -0.0734592 -0.0639928 -0.0910568 0.133352 
3679 2 0.100258 -0.0582963 -0.0775461 0.139512 
52 1 0.0115927 -0.141246 0.0183145 0.1429 
407 1 0.022736 0.0739359 -0.0744522 0.107362 
360 1 0.0697832 -0.0235897 -0.0581538 0.0938511 
2885 1 -0.06831 -0.00663011 -0.001183 0.0686412 
3526 2 -0.0536742 -0.231572 -0.026837 0.239221 
310 1 -0.0939189 -0.0436708 -0.0483052 0.114286 
326 1 0.110542 -0.0298407 0.0861248 0.143274 
227 1 -0.0499094 -0.0653624 -0.0663049 0.105639 
2068 1 -0.116065 -0.000271446 -0.161229 0.19866 
456 1 0.0872694 -0.0153701 0.0558792 0.10476 
279 1 0.0213556 0.0499285 0.147965 0.157615 
305 1 0.00684219 0.0341949 -0.0154134 0.0381272 
49 1 0.00727859 0.0606119 0.028811 0.0675045 
3512 2 0.0345892 -0.152671 0.0290384 0.159211 
11 1 -0.0772711 -0.182711 0.00245341 0.198394 
189 1 -0.122731 0.107477 0.016952 0.164017 
2271 1 -0.0945025 -0.08074 -0.0495148 0.133796 
319 1 -0.135071 -0.0610566 0.0168938 0.14919 
3566 2 0.0535531 0.0361857 -0.062506 0.089913 
71 1 0.0327669 -0.00556365 0.0575301 0.0664405 
1560 1 -0.0428372 0.0285005 0.0578669 0.0774331 
190 1 -0.0790454 0.00983815 0.123913 0.147307 
123 1 0.0820405 -0.00913871 0.108185 0.136081 
27 1 -0.0228006 -0.0307839 0.000442102 0.0383107 
162 1 0.0150637 0.0512387 -0.0692139 0.0874236 
255 1 -0.131708 -0.0169342 -0.00039407 0.132792 
304 1 -0.0564169 -0.00859424 -0.0880221 0.104903 
321 1 0.0211852 -0.0296671 0.139312 0.144003 
682 1 -0.106548 0.00322634 0.00388147 0.106668 
3469 2 0.0146716 8.96869e-06 -0.0800219 0.0813557 
3539 2 0.0114911 0.000868242 0.110465 0.111064 
128 1 0.030768 -0.0857505 -0.100889 0.135935 
3562 2 0.111646 0.0139025 0.14264 0.181671 
560 1 -0.188403 -0.0598042 -0.0772749 0.212235 
212 1 -0.0133264 0.05676 -0.0755061 0.0953963 
355 1 0.00852688 0.0424648 0.0719717 0.0839994 
156 1 0.00572754 0.0719263 0.0536456 0.0899114 
3620 2 0.0763115 -0.0684782 0.00259392 0.102564 
1823 1 0.208449 -0.169715 -0.0876717 0.282738 
1805 1 -0.150531 0.0266264 0.101245 0.183355 
2599 1 -0.0843623 0.0504899 0.108336 0.146297 
327 1 0.122088 0.0393674 0.0522932 0.138527 
137 1 0.0755524 0.0461151 -0.018125 0.0903509 
2334 1 0.0114654 0.00825121 0.0271889 0.0306395 
3698 2 0.0147748 -0.0534183 -0.0260912 0.0612581 
555 1 -0.0295117 -0.0410664 -0.029777 0.0586862 
4178 2 -0.0162443 -0.0641778 0.0314924 0.0733105 
290 1 0.00549981 -0.0106549 -0.0344018 0.0364316 
284 1 0.0286731 0.0396396 0.00273266 0.0489991 
3543 2 -0.0786283 -0.0786376 -0.00301629 0.111245 
366 1 0.0299535 -0.00638154 0.111086 0.11523 
55 1 0.0272963 0.0510481 -0.00274752 0.0579529 
273 1 -0.0354112 0.0118248 -0.0970832 0.104014 
3468 2 0.109891 -0.0263683 0.13268 0.174285 
316 1 0.15573 0.052125 0.13058 0.20981 
81 1 -0.0498341 -0.0461089 0.00107497 0.0679016 
322 1 0.049579 -0.0526241 0.0542102 0.0903666 
239 1 0.0379151 -0.0119425 -0.0521247 0.0655527 
734 1 -0.0058486 -0.0572783 -0.0706953 0.0911748 
384 1 0.0263608 -0.0947364 -0.0992558 0.13972 
3476 2 0.012472 0.092497 0.0141985 0.0944078 
311 1 -0.0472814 -0.107048 -0.0391649 0.123404 
3471 2 0.0375066 0.0371331 0.0689154 0.0868041 
1938 1 0.0781589 -0.0475743 0.0181282 0.0932779 
139 1 0.177323 0.0167853 -0.0467976 0.184161 
727 1 0.0939461 -0.124892 -0.0198367 0.157535 
1885 1 -0.0024474 0.0513943 -0.0223997 0.056117 
2184 1 0.20967 0.0946429 -0.0525688 0.235971 
2494 1 -0.156688 0.0187413 -0.115604 0.195619 
2091 1 0.0046407 0.0253781 -0.0637887 0.0688083 
281 1 0.0198209 0.101682 0.13606 0.17101 
863 1 -0.0282596 0.0704502 -0.0837551 0.113034 
176 1 -0.0577142 0.0357685 -0.0900944 0.112815 
3710 2 0.00805783 0.0630276 -0.0637494 0.0900078 
3572 2 -0.0396177 -0.118987 -0.104417 0.163188 
4197 2 -0.0301637 0.070197 -0.107171 0.131617 
343 1 -0.0591676 -0.0342321 -0.103682 0.124188 
282 1 -0.0496499 -0.0129368 -0.0723436 0.0886909 
1038 1 0.0197937 0.0598408 0.0829985 0.104218 
408 1 0.191861 -0.0264533 0.0181234 0.194522 
412 1 0.112117 -0.0204933 0.00531128 0.114098 
820 1 0.125144 0.0436897 0.116806 0.176673 
585 1 -0.0878838 -0.0271168 -0.116675 0.148566 
3609 2 0.0866453 -0.131594 0.0381032 0.162099 
719 1 -0.0108258 0.0169696 -0.0158569 0.0256243 
608 1 0.0638392 0.102046 0.098374 0.155455 
106 1 0.0135823 0.0436315 0.0371579 0.0588973 
1047 1 -0.116288 -0.0560938 -0.0422708 0.135854 
3573 2 0.0506126 0.0564693 -0.0763647 0.10762 
751 1 -0.00984009 -0.0268815 -0.0821196 0.0869659 
259 1 0.069331 -0.0120516 -0.0162215 0.0722161 
245 1 -0.0494247 -0.0335563 0.0121304 0.0609587 
613 1 -0.0528903 -0.100836 0.0877081 0.143729 
4296 2 -0.0139112 0.058057 0.0170957 0.0621 
272 1 -0.104888 -0.139762 -0.0453583 0.180534 
4239 2 -0.150752 -0.0880123 -0.0887218 0.195816 
88 1 0.0785559 0.108167 0.106013 0.170616 
4 1 0.0605597 0.00354684 -0.0621272 0.0868323 
361 1 0.134294 0.0910438 -0.153198 0.223144 
358 1 -0.0602485 0.0303946 0.0719055 0.098611 
194 1 0.0372011 0.0371714 -0.103895 0.116447 
2373 1 0.0168565 -0.000578377 -0.0789208 0.0807029 
1982 1 0.0560947 0.0298404 0.0435537 0.0770324 
3953 2 0.0169349 0.0604596 0.0975789 0.116034 
414 1 0.0237514 0.037907 -0.130428 0.137886 
3186 1 0.0889349 -0.042274 -0.0223572 0.100977 
177 1 0.0721928 -0.0480099 -0.00073095 0.0867023 
1962 1 -0.0188808 0.101012 0.165282 0.194623 
706 1 -0.00550487 0.0552588 -0.0164873 0.0579281 
1544 1 0.0262574 -0.152 0.0697558 0.16929 
4160 2 -0.0194114 0.076291 -0.0277438 0.0834676 
19 1 -0.0654908 0.0781976 -0.0958214 0.139949 
3624 2 -0.0466248 -0.0092654 -0.0816769 0.0945031 
115 1 0.0545204 -0.0192357 -0.111451 0.125554 
1102 1 -0.0535119 -0.0374673 0.0746955 0.0992307 
2048 1 0.119845 -0.00180067 0.000997217 0.119863 
649 1 0.0275004 0.096534 -0.0202871 0.102404 
113 1 -0.0155543 -0.0619595 0.0233292 0.0680086 
1150 1 -0.00939201 0.00417848 0.0399251 0.0412272 
620 1 0.0338237 -0.0939706 -0.000703827 0.099875 
739 1 -0.00171244 -0.036096 -0.0991356 0.105516 
2412 1 -0.0112692 0.0185383 -0.00530428 0.0223338 
3746 2 0.106563 0.0256918 -0.179538 0.210356 
1225 1 -0.0221883 0.0123396 0.137298 0.139626 
241 1 0.12525 -0.0352469 0.00224166 0.130134 
83 1 0.0216555 -0.0295506 -0.0052478 0.0370099 
1006 1 0.0571869 0.00912104 -0.0125136 0.0592463 
4046 2 -0.0830728 -0.0853395 -0.0273109 0.122188 
96 1 -0.0357587 -0.160156 0.0582985 0.174148 
411 1 0.134916 0.0448641 0.0563241 0.15293 
2454 1 -0.0547502 -0.000444753 0.0570773 0.0790923 
404 1 -0.0553868 0.0904999 0.0804796 0.133172 
226 1 0.0397507 -0.0154882 0.0538117 0.0686709 
534 1 0.0558713 -0.0472841 0.123708 0.14374 
3538 2 -0.073211 0.0776942 -0.0587542 0.121854 
761 1 0.0498139 -0.0440545 0.0724775 0.0983626 
246 1 0.034506 -0.0247254 -0.00331326 0.0425792 
2229 1 -0.0585734 -0.146846 -0.0327322 0.16145 
146 1 0.0103151 -0.119888 -0.065487 0.136997 
3608 2 -0.00280072 -0.00350445 0.0263528 0.0267319 
503 1 0.0291053 -0.0132787 -0.000293683 0.0319926 
505 1 0.136541 -0.0641984 0.023783 0.152743 
1430 1 -0.0434333 -0.0661046 -0.0739403 0.108275 
97 1 -0.115165 0.058602 -0.100596 0.163758 
1723 1 0.0264274 -0.0104661 -0.0936888 0.0979058 
3561 2 0.0529494 0.196684 -0.0651285 0.213846 
20 1 -0.0697958 -0.022758 0.0202469 0.0761533 
263 1 -0.0528175 0.159358 -0.010676 0.168222 
817 1 0.103738 -0.0866182 0.0200039 0.136618 
1034 1 -0.00714258 0.044542 0.0114499 0.0465415 
353 1 0.023219 -0.0694081 0.192289 0.205747 
1260 1 0.0454901 0.118663 -0.0553935 0.138632 
998 1 0.0468111 0.129251 -0.0829447 0.160552 
1932 1 0.133813 -0.123135 -0.0490984 0.188358 
36 1 0.0996522 -0.183548 -0.0817237 0.224275 
38 1 0.0391528 0.0515065 -0.0236576 0.0688879 
3130 1 -0.049398 -0.0446525 -0.0572493 0.0878151 
1973 1 0.0987247 0.0682332 0.138632 0.183361 
307 1 0.0905159 -0.0274894 0.0228503 0.0973187 
2714 1 0.067948 0.0235663 0.0142959 0.0733258 
28 1 0.0838378 0.0567276 -0.0113859 0.101865 
1937 1 0.00786474 0.0738016 -0.0656262 0.0990723 
562 1 -0.0703348 -0.110882 -0.0190638 0.132685 
3011 1 -0.0221317 0.0151009 -0.0198358 0.0333363 
410 1 0.0714304 -0.115511 0.046612 0.143589 
693 1 0.0865476 0.0749217 0.200876 0.231203 
367 1 0.00174718 0.00654463 0.00523443 0.00856061 
318 1 0.0339804 0.035778 -0.13606 0.144731 
735 1 0.149047 0.0127467 0.0258591 0.15181 
600 1 0.00263506 0.0183254 0.0308229 0.0359557 
3590 2 0.0323159 0.101058 0.0509273 0.117688 
3636 2 0.0567734 -0.0686136 0.0344954 0.0955038 
26 1 -0.148625 0.0430232 0.0803578 0.17435 
1199 1 0.0218569 0.0914152 -0.0626168 0.112939 
614 1 0.0200102 0.00955944 -0.0769141 0.0800473 
459 1 -0.0656419 -0.0696564 -0.0626408 0.114389 
3645 2 0.0650995 0.121749 0.0645875 0.152422 
574 1 0.0787471 -0.0880627 0.121974 0.169805 
780 1 0.143869 0.0185084 0.0115331 0.145512 
161 1 -0.118484 -0.0548463 0.120112 0.177407 
309 1 0.107007 0.0908671 -0.0198166 0.141775 
365 1 0.0621425 -0.144936 -0.0590424 0.168386 
191 1 -0.0775689 0.0998857 -0.0144589 0.127292 
1766 1 -0.0772933 -0.0265842 -0.0183129 0.0837635 
2775 1 0.104553 -0.0517329 -0.0589642 0.130707 
1030 1 0.156731 -0.131435 -0.00902345 0.204747 
1505 1 0.168076 0.178113 0.126876 0.27581 
3872 2 -0.0573481 0.0231643 -0.0048219 0.0620374 
580 1 -0.0302229 -0.0322482 0.0168821 0.0473114 
2054 1 -0.0438089 -0.0951475 -0.0341066 0.110161 
2064 1 0.0942348 0.0154951 -0.0226756 0.0981554 
529 1 -0.00310442 0.0363235 -0.0783864 0.0864492 
402 1 -0.0270155 0.0724213 0.0228712 0.0806088 
124 1 -0.0790894 -0.0989522 0.0461102 0.134807 
744 1 0.113971 -0.0215243 0.0609517 0.131026 
185 1 0.0598113 -0.031083 0.0833685 0.107209 
315 1 0.00981165 -0.030447 -0.0315205 0.0449092 
655 1 -0.00306787 -0.0867188 0.172905 0.193457 
765 1 0.0034564 0.0369866 0.0293301 0.0473309 
140 1 -0.000187528 0.0828546 -0.172624 0.191478 
59 1 -0.00736472 -0.00769097 0.0851297 0.0857931 
54 1 0.0154324 0.0634567 0.0283319 0.0711871 
3506 2 -0.0385101 0.131404 -0.122771 0.18391 
666 1 0.00966081 -0.192344 0.0682256 0.204314 
43 1 0.0932002 0.0720684 0.0976548 0.153025 
334 1 -0.073527 -0.0604211 0.0589338 0.111938 
267 1 0.138328 0.0432081 -0.132079 0.196078 
99 1 0.080008 0.120207 0.074154 0.162326 
1189 1 -0.117875 -0.0146287 -0.185277 0.220082 
201 1 -0.0403045 -0.0582422 -0.050541 0.0870115 
380 1 -0.000457111 0.106486 -0.149052 0.183183 
1777 1 0.00106067 -0.0173863 -0.0563785 0.059008 
2597 1 0.233372 -0.0137122 0.0471885 0.23849 
2484 1 0.144902 -0.0336041 -0.0199991 0.150086 
308 1 0.0130837 -0.00216047 -0.0788858 0.0799926 
3918 2 -0.0323582 0.140467 0.0879838 0.168876 
89 1 -0.102251 0.040595 -0.00770013 0.110284 
300 1 -0.0210651 -0.0111601 0.0167289 0.0291229 
3582 2 0.0561965 -0.00977096 -0.0368757 0.0679216 
712 1 -0.0542627 0.0886338 -0.037691 0.110549 
3836 2 -0.0206413 0.0779331 -0.0527667 0.0963533 
268 1 -0.0290834 -0.0126624 0.0449659 0.0550283 
788 1 -0.026639 0.123652 -0.0689125 0.144043 
4091 2 -0.0193116 0.145235 -0.0148167 0.147261 
371 1 0.00322186 0.0489257 0.125368 0.134615 
3505 2 0.0836678 -0.014951 0.00837056 0.0854043 
266 1 0.13859 -0.068129 -0.0947577 0.181185 
3571 2 0.0106395 -0.0714948 0.0751789 0.104291 
637 1 -0.0220497 -0.00550879 -0.0879178 0.0908079 
157 1 -0.0728746 -0.0292028 0.0918739 0.120848 
257 1 -0.00275065 0.0080775 0.0211965 0.0228496 
571 1 -0.0111845 0.0471583 0.0159344 0.0510187 
665 1 -0.154121 -0.0417199 0.15808 0.224684 
448 1 -0.156783 -0.114755 0.0142292 0.194813 
827 1 0.0714661 0.0879896 0.0327266 0.117986 
3475 2 0.0977679 0.0420414 0.0593651 0.121862 
73 1 -0.0401543 0.0684839 -0.000347585 0.0793885 
373 1 0.103424 0.00622569 0.0947512 0.140403 
247 1 0.0353173 -0.0211148 -0.0683116 0.0797472 
107 1 0.0606286 0.0566387 -0.0758004 0.112381 
675 1 -0.0716428 0.061414 -0.11098 0.145674 
434 1 0.0537142 0.0705651 -0.0288201 0.0932483 
159 1 -0.0576617 0.0881655 -0.0373292 0.111765 
32 1 0.0677826 0.122525 -0.00536506 0.140127 
3579 2 0.0819813 -0.0381905 -0.117996 0.148669 
394 1 -0.0634619 0.0083513 0.0638909 0.090439 
260 1 -0.0117635 0.0665236 0.0314519 0.0745183 
3972 2 -0.0790683 0.0538863 0.0819039 0.125952 
1801 1 -0.0491945 0.0406663 0.043845 0.0774353 
2122 1 0.00535273 0.0316036 0.173316 0.176255 
1966 1 0.00248381 -0.0722946 -0.102513 0.125465 
291 1 -0.0111403 0.00922016 0.0488125 0.0509095 
2047 1 0.0908063 0.0482322 0.0307798 0.107329 
1899 1 0.0414939 0.0584666 -0.00840301 0.0721852 
622 1 -0.0243135 0.13533 -0.0109161 0.137929 
1993 1 -0.00378507 -0.0108763 0.0149039 0.0188347 
62 1 0.0143531 0.0386956 0.0626882 0.0750544 
2187 1 -0.0714001 0.0376167 -0.106599 0.133702 
4318 2 0.089708 0.0236362 0.0129081 0.0936633 
44 1 0.00361069 0.0260271 0.0967459 0.100251 
824 1 0.049761 -0.0153441 0.0788161 0.0944647 
1282 1 0.0202009 -0.00140878 0.106094 0.108009 
3626 2 0.148154 0.0939269 -0.0371032 0.1793 
819 1 0.0596811 0.100186 0.0666575 0.134322 
773 1 -0.123932 -0.164523 0.0548535 0.213157 
270 1 -0.0601825 -0.0519813 -0.0486011 0.093199 
14 1 -0.112785 -0.0556362 0.000307039 0.125761 
3540 2 0.0618361 -0.0380042 0.00454503 0.0727233 
997 1 0.056633 -0.0662593 -0.0719872 0.113048 
4275 2 -0.0378082 -0.0789914 -0.166946 0.18852 
164 1 0.0250562 0.048847 0.145695 0.155695 
234 1 0.0470316 -0.00945656 0.0762491 0.0900851 
1125 1 -0.0169226 -0.0277657 -0.0718904 0.0789021 
3985 2 -0.0179479 -1.1169e-05 0.0431861 0.0467671 
328 1 0.0174217 -0.00741883 -0.0401116 0.0443564 
3474 2 0.0263964 0.00346965 -0.073678 0.0783406 
543 1 -0.07003 0.00507671 0.00968175 0.0708781 
293 1 0.102589 -0.0763899 0.110351 0.168929 
3458 2 0.114112 -0.0327832 0.1076 0.160231 
390 1 -0.00799047 -0.00497884 -0.109397 0.109802 
3706 2 0.0914956 -0.22942 -0.139773 0.283798 
2169 1 0.0843527 0.0966484 -0.070764 0.146505 
1786 1 0.0513109 0.00669467 -0.0328671 0.0613015 
1478 1 -0.0340807 0.0617086 0.12503 0.143534 
87 1 0.0286027 0.0112725 -0.0480381 0.0570337 
4090 2 -0.0670151 -0.0354245 0.0396667 0.0855533 
142 1 0.0104028 0.0237606 0.0177722 0.0314426 
1650 1 -0.0831547 -0.0934087 -0.0709072 0.143763 
153 1 0.0611858 -0.0167266 0.0128881 0.064727 
374 1 0.0279547 -0.0598198 -0.0722216 0.0978562 
602 1 0.0282776 -0.0705125 -0.1185 0.140762 
1277 1 -0.0639244 0.0037749 0.034227 0.072609 
76 1 0.0251892 -0.0173642 0.15731 0.160257 
1370 1 0.0572943 -0.0245796 0.0802757 0.101641 
221 1 -0.0215364 0.0773128 -0.00755524 0.0806112 
604 1 -0.0944094 0.0402478 0.0787582 0.129367 
1161 1 -0.0424845 -0.0775046 0.0329158 0.0943151 
1718 1 -0.0821779 0.039036 -0.126618 0.155914 
178 1 -0.0657701 -0.270774 -0.0328575 0.280578 
295 1 -0.168884 -0.0862862 -0.00751534 0.189799 
1472 1 -0.104921 -0.000168477 -0.0242228 0.107681 
4159 2 -9.11448e-05 -0.03069 -0.0219218 0.0377154 
3467 2 0.0980534 -0.0100371 -0.0421395 0.107196 
3531 2 -0.0805912 -0.0941681 0.142395 0.188783 
2720 1 -0.0414664 0.0832562 -0.0738285 0.118751 
1851 1 -0.0237907 0.000775424 -0.00486153 0.0242947 
732 1 0.0230914 -0.0703216 0.0270403 0.0788005 
446 1 -0.295954 0.102471 0.0775004 0.322639 
3878 2 0.0680314 0.0758268 -0.0392314 0.109165 
3185 1 -0.185167 -0.00525369 0.0169234 0.186013 
110 1 -0.0890228 0.0150586 0.024856 0.0936464 
2963 1 -0.0448849 0.033161 -0.0276173 0.0622657 
2608 1 -0.0224771 -0.00614984 0.000475015 0.0233081 
3301 1 0.0368217 0.019013 0.126229 0.132858 
3759 2 -0.0385228 -0.0594512 -0.0383693 0.0805646 
4171 2 -0.0990035 0.0295625 0.0500002 0.114785 
2118 1 -0.00984059 0.0473044 -0.0438397 0.0652416 
1742 1 0.00147982 -1.80102e-05 0.0476627 0.0476856 
642 1 0.0383093 -0.199722 0.0113179 0.203677 
3366 1 -0.0505462 0.0271181 0.0910273 0.107593 
144 1 0.123501 0.150871 0.0117064 0.195325 
681 1 0.0484898 -0.0167681 -0.114289 0.125278 
1666 1 0.0513451 -0.0638811 -0.0378449 0.0902737 
183 1 -0.0954991 -0.113631 -0.0427099 0.154455 
694 1 -0.148022 0.00903061 0.0644902 0.161713 
444 1 -0.0598775 0.0436162 -0.140206 0.158573 
869 1 -0.0540353 -0.149751 0.142541 0.213689 
920 1 -0.0525783 -0.137444 0.0109894 0.147567 
53 1 0.0808667 -0.0113325 0.0505986 0.0960628 
1450 1 -0.269413 -0.0265281 -0.0984521 0.288062 
1579 1 0.049928 -0.0990435 0.0585102 0.125403 
51 1 0.121254 -0.00924281 -0.0564602 0.134073 
4187 2 -0.103305 -0.0889586 -0.155583 0.206861 
1694 1 0.00522841 -0.125728 0.221055 0.254362 
1590 1 0.0387436 0.0144724 -0.0742648 0.0850045 
2005 1 0.0507669 -0.0913404 0.123268 0.161602 
736 1 -0.121531 0.019629 -0.0217655 0.125015 
363 1 0.12542 0.00541049 0.00326157 0.125579 
230 1 0.00365353 0.0175639 0.103547 0.10509 
2538 1 0.0840303 -0.0794377 -0.0362227 0.121176 
357 1 -0.0603191 0.000413928 -0.0497197 0.0781704 
3849 2 0.175626 -0.0543963 -0.121749 0.220513 
4102 2 -0.000311528 -0.12792 0.0558395 0.139577 
1032 1 0.0716989 0.0418871 0.0626412 0.104015 
78 1 0.00811468 0.0623273 -0.0288271 0.0691487 
564 1 0.27898 -0.0721671 0.0927267 0.302715 
797 1 0.152279 -0.0633027 -0.0300795 0.167633 
1476 1 0.235317 0.0260267 -0.0236324 0.237929 
872 1 -0.100058 0.0151156 -0.0790534 0.128411 
475 1 -0.00554171 -0.0407393 0.00588667 0.0415337 
4119 2 0.267027 -0.125331 -0.103971 0.312764 
576 1 -0.144885 0.0328438 0.0664168 0.162732 
507 1 0.0631066 -0.119475 0.0201224 0.136608 
248 1 0.0570585 -0.0422355 -0.0189484 0.0734748 
3597 2 -0.0767395 0.06449 0.092396 0.136327 
539 1 0.0126236 -0.0219201 0.055994 0.0614425 
63 1 0.0701679 0.00176892 0.112038 0.132209 
57 1 -0.0346095 -0.0556937 0.0184319 0.0681128 
854 1 -0.052981 0.0295416 0.0174321 0.0631155 
668 1 0.0974708 -0.13802 -0.0979137 0.195288 
385 1 -0.0921711 -0.253433 0.0902049 0.284361 
752 1 0.0157997 0.0614735 -0.0177467 0.0659057 
3650 2 -0.0128557 0.159016 -0.0721146 0.175077 
3736 2 -0.0901307 -0.177464 0.0369195 0.202435 
254 1 -0.154183 -0.155397 0.0154749 0.219454 
3637 2 -0.00957953 -0.0172028 0.0690091 0.0717633 
731 1 -0.0186523 -0.0488619 -0.00562765 0.0526029 
2304 1 0.0947965 -0.144313 -0.0151408 0.173326 
610 1 -0.197224 0.0201754 -0.107477 0.225511 
292 1 -0.143213 0.0190578 -0.000984351 0.144479 
313 1 -0.113508 0.0102985 0.0273751 0.117216 
2133 1 -0.000614518 -0.116877 -0.0344582 0.121852 
646 1 -0.109735 -0.0359841 -0.0924512 0.147932 
271 1 0.0282995 0.112087 0.0549308 0.127991 
584 1 -0.0490818 0.117651 -0.0808658 0.150964 
3649 2 -0.0878721 0.0161673 0.043737 0.0994777 
1148 1 -0.0394287 0.128759 0.137678 0.192584 
779 1 -0.101564 -0.0704336 0.0254592 0.126192 
621 1 -0.134548 0.0443907 0.0535656 0.15147 
16 1 -0.0385553 -0.00395774 0.129115 0.134807 
3635 2 -0.0657302 -0.225525 0.0394979 0.238206 