ITEM: TIMESTEP
92
ITEM: NUMBER OF ATOMS
4320
ITEM: BOX BOUNDS pp pp pp
0.0000000000000000e+00 1.9309999999999999e+01
0.0000000000000000e+00 1.9309999999999999e+01
0.0000000000000000e+00 9.6549999999999994e+00
ITEM: ATOMS id type c_displacement[1] c_displacement[2] c_displacement[3] c_displacement[4] 
4012 2 0.0124826 -0.117658 -0.0701367 0.137544 
2361 1 -0.0626852 -0.0352597 -0.146381 0.163096 
79 1 0.059499 -0.0445657 -0.068693 0.101217 
781 1 0.0465891 0.0632002 0.13247 0.153991 
461 1 0.0397175 0.0571427 0.089585 0.113438 
3704 2 0.0485444 -0.0922912 0.0622527 0.121448 
629 1 -0.00794473 0.0944058 0.0554703 0.109784 
1571 1 0.0378035 -0.0668357 -0.0616832 0.0984933 
58 1 0.0464364 0.18283 0.00299973 0.188659 
2372 1 -0.0760015 -0.0324868 -0.0483045 0.0957337 
372 1 0.000682403 -0.0796782 -0.0350954 0.0870677 
3504 2 -0.0595298 -0.0530524 0.0486995 0.0934345 
4130 2 0.0605101 -0.0100611 -0.0940894 0.112319 
1262 1 0.0304268 -0.00640316 -0.0570824 0.0650014 
907 1 -0.106756 -0.033513 -0.155523 0.191592 
3659 2 0.0346032 0.0697179 -0.0427993 0.0888242 
1298 1 0.0641215 0.0447091 -0.0920302 0.120748 
1716 1 0.0431901 0.0399731 -0.0423512 0.0725042 
1182 1 0.0146106 0.0536294 -0.0483368 0.0736616 
683 1 0.0417085 -0.0625195 0.00973295 0.0757827 
1958 1 -0.0755245 0.00472018 -0.0314119 0.0819326 
1554 1 0.0307438 -0.0808201 -0.0659111 0.108726 
1037 1 -0.0134104 -0.0909658 -0.00317478 0.0920037 
749 1 0.0122633 -0.166197 -0.049133 0.173741 
3628 2 0.028809 0.00146261 0.0431092 0.0518701 
946 1 -0.131415 -0.0650681 0.0324853 0.150197 
2232 1 -0.105631 -0.189345 -0.145196 0.260943 
7 1 0.0279998 -0.071131 0.0680212 0.102325 
501 1 0.0140491 -0.0412809 0.0264726 0.0510126 
179 1 -0.0493792 0.00458341 0.0822483 0.0960422 
714 1 -0.113174 0.049439 0.0114084 0.124028 
4166 2 0.00573672 -0.0453674 0.123997 0.13216 
276 1 -0.0111848 -0.085161 0.0517671 0.100286 
767 1 0.0443164 0.0111362 0.0578475 0.0737176 
3890 2 -0.129204 -0.0527171 -0.0445542 0.146485 
6 1 0.0168217 0.172021 0.0723527 0.187374 
2086 1 0.10249 0.0254963 0.00636469 0.105805 
224 1 0.122228 -0.0885389 0.0184818 0.152054 
3660 2 0.0291296 -0.039802 0.110939 0.12141 
596 1 -0.058182 -0.0386398 -0.0420878 0.0815449 
1214 1 0.101132 -0.0339277 -0.0575064 0.121185 
3686 2 -0.0558132 -0.00449048 0.0461518 0.0725621 
427 1 -0.15878 0.00941235 0.0516427 0.167232 
350 1 0.0512587 0.0453411 -0.0753469 0.101786 
85 1 -0.0663751 0.0446335 0.0928491 0.122551 
598 1 0.0486595 -0.167442 0.0362838 0.178104 
3554 2 0.107528 0.00227237 -0.0293339 0.111481 
29 1 -0.240275 0.0996055 -0.0319642 0.262059 
464 1 0.0265259 -0.0353857 -0.0916191 0.101734 
3619 2 -0.0778463 -0.0250547 0.157915 0.177834 
12 1 -0.0764187 0.0310535 -0.0745138 0.11116 
364 1 -0.149232 -0.0266242 -0.0411014 0.157062 
1849 1 -0.0951833 -0.0557943 -0.12157 0.164171 
3663 2 -0.224424 0.0618475 -0.0834188 0.247285 
3517 2 0.0031841 0.0212703 0.159499 0.160942 
25 1 0.207454 0.0555221 -0.0651959 0.224433 
4163 2 -0.033534 -0.0488942 0.0092684 0.060009 
399 1 0.028365 0.0707995 -0.0408783 0.0865342 
4265 2 -0.0447766 0.0416427 0.174929 0.185309 
527 1 -0.0256214 0.0778334 -0.00724814 0.0822619 
200 1 0.0404798 0.057844 0.109874 0.130602 
1951 1 0.0812152 0.0783501 0.00170848 0.112861 
644 1 0.0357395 -0.0401088 0.00525131 0.0539778 
193 1 -0.0160113 0.0157463 0.0413485 0.0470532 
550 1 0.0846918 -0.0377067 0.0344393 0.0988967 
69 1 0.0613059 -0.0590716 0.00732716 0.0854491 
842 1 0.065071 0.00812409 -0.0250847 0.0702103 
578 1 0.0561123 -0.0800133 -0.0286122 0.10183 
172 1 -0.00647604 -0.0200986 0.0844301 0.0870307 
381 1 -0.0259208 -0.0250631 0.0561355 0.0667177 
3524 2 0.00576044 0.0561016 0.0762384 0.0948307 
688 1 -0.0226834 0.154841 0.0517706 0.164835 
3651 2 -0.0104629 0.015809 0.0951461 0.0970164 
2367 1 0.0628631 0.0764956 -0.0919184 0.135101 
1244 1 -0.13714 0.0113862 3.5981e-05 0.137612 
796 1 0.0344984 0.137941 -0.0549039 0.152422 
691 1 -0.00498704 0.027179 -0.131859 0.134723 
421 1 0.0417286 0.0695462 -0.0126114 0.0820792 
597 1 0.0573777 0.00790588 0.0629005 0.0855054 
3617 2 0.148046 0.00845268 -0.052441 0.157287 
120 1 0.037546 0.233984 0.107854 0.260366 
769 1 -0.0715591 -0.0802694 0.0250647 0.110418 
2142 1 0.0408718 0.0474331 -0.0163837 0.0647211 
3611 2 0.062679 -0.0142608 0.174695 0.186146 
1915 1 0.0163797 0.123258 0.080939 0.148365 
2140 1 0.0930878 -0.0505917 0.0383488 0.112674 
3828 2 0.0301336 0.110941 0.0987601 0.151557 
3204 1 -0.044518 0.0406596 0.0882157 0.106851 
175 1 0.10577 -0.0755673 -0.0557022 0.141423 
2011 1 0.224178 0.109519 0.083201 0.263007 
75 1 -0.089372 0.109518 -0.0549921 0.151676 
547 1 -0.0149593 -0.000584415 -0.157872 0.15858 
4316 2 -0.102029 0.0929257 -0.0679845 0.153841 
559 1 0.024082 0.0806577 -0.0544665 0.100261 
717 1 0.00805271 0.0894333 -0.130571 0.158467 
242 1 -0.00423471 -0.0251244 0.17391 0.175766 
3510 2 -0.149882 -0.00209021 0.212871 0.260352 
130 1 0.0876188 0.0121905 0.0320119 0.0940767 
143 1 0.00901041 0.080228 -0.00796917 0.0811247 
202 1 -0.130222 -0.121802 0.00445182 0.178362 
182 1 -0.119436 0.0628727 0.0912216 0.162909 
84 1 0.0210247 0.0227545 -0.0267138 0.0409076 
3633 2 -0.097595 -0.0241184 -0.0668703 0.12074 
35 1 -0.155514 0.0192361 0.149053 0.216268 
3612 2 0.00401235 0.0207891 0.0317699 0.0381787 
40 1 0.0561437 0.0855714 0.0506476 0.114192 
4005 2 0.107515 -0.109546 0.107501 0.187394 
718 1 -0.100655 0.0101994 -0.0360389 0.107397 
134 1 0.0485741 0.0365702 0.0739259 0.0957176 
511 1 -0.163162 -0.0365224 0.028868 0.169673 
757 1 -0.0336782 0.183193 0.0118028 0.186636 
3555 2 -0.0298288 0.101888 0.0904218 0.139452 
3481 2 0.0157905 -0.0512229 -0.0720278 0.0897838 
135 1 -0.0701776 -0.0211445 -0.0366729 0.0819566 
369 1 0.0646572 -0.0300616 -0.0125065 0.0723924 
2148 1 -0.00976129 -0.0812933 0.0425337 0.0922659 
3462 2 0.0054963 -0.095781 -0.152684 0.180324 
1914 1 -0.0454648 -0.0719702 -0.10309 0.133695 
3661 2 0.0711549 -0.122667 -0.033833 0.145791 
1871 1 0.00158938 0.0456237 -0.00942841 0.0466149 
320 1 -0.107361 -0.116518 -0.0594745 0.169234 
582 1 -0.0829407 -0.112003 0.0206002 0.140884 
766 1 0.00847573 0.039202 -0.0821628 0.0914296 
3552 2 0.0816096 0.0303458 -0.0462884 0.0986084 
2290 1 0.0389393 0.0993981 0.0101665 0.107236 
1794 1 -0.0816141 0.158533 0.022564 0.179729 
753 1 -0.0216814 -0.0412977 0.0248498 0.0528498 
396 1 0.0737298 -0.0124924 0.160043 0.176652 
496 1 0.0208101 -0.072978 -0.0733073 0.105512 
480 1 -0.028772 -0.0848782 0.117893 0.14809 
253 1 0.108691 0.00612683 -0.0790254 0.134523 
4033 2 0.0374203 -0.0428209 -0.0527907 0.0775936 
347 1 -0.0593895 -0.0571783 -0.0961907 0.126685 
586 1 -0.0687463 0.02012 -0.064727 0.0965425 
3671 2 -0.0726315 0.00591327 -0.0495538 0.0881242 
37 1 0.114544 -0.175664 -0.0930106 0.229411 
782 1 0.06184 -0.0978882 -0.0455433 0.124421 
481 1 0.112932 -0.0618472 -0.0386503 0.134434 
392 1 -0.0336127 -0.0374635 -0.06995 0.0861761 
333 1 0.00414494 -0.0615105 -0.0427006 0.0749938 
342 1 0.010167 -0.0596464 -0.0942743 0.112021 
1179 1 0.0514206 -0.092329 -0.0962968 0.142975 
517 1 0.0574447 -0.0800353 -0.0329829 0.103891 
1824 1 0.0429336 -0.0121194 -0.0235609 0.0504508 
34 1 0.179259 -0.0505116 0.0634494 0.196751 
398 1 0.000440139 -0.00442013 -0.0471747 0.0473834 
170 1 -0.0291085 -0.038762 -0.0126847 0.0501068 
235 1 0.0129821 -0.0450513 0.0276385 0.0544246 
3852 2 -0.0696411 -0.0220648 -0.0134879 0.0742877 
816 1 0.0442912 -0.0651521 -0.139618 0.160311 
3931 2 -0.193971 -0.0780038 0.0541326 0.215962 
274 1 -0.00871908 -0.0709966 -0.081518 0.108452 
30 1 0.000311749 -0.0781006 -0.0159169 0.0797066 
2066 1 0.0878869 -0.024129 0.157615 0.182069 
1082 1 -0.0332324 -0.11991 0.184475 0.222517 
1372 1 0.0127496 -0.0269494 0.0873213 0.0922704 
1265 1 0.0248735 -0.00988495 -0.00151872 0.0268087 
601 1 -0.0296655 0.0420459 0.0184832 0.0546766 
540 1 -0.109639 -0.150326 -0.0114202 0.186411 
589 1 -0.0152607 0.0544886 0.177003 0.185828 
958 1 0.098861 -0.0142557 0.105446 0.145243 
504 1 -0.0561179 0.0815096 -0.0175557 0.100505 
1349 1 -0.184295 -0.0353554 0.0166116 0.188389 
9 1 0.00820903 -0.117832 -0.0376754 0.12398 
149 1 -0.04555 0.00198885 0.0124595 0.0472652 
163 1 -0.0222716 -0.273551 0.0992274 0.291842 
4247 2 0.0689096 -0.125411 -0.143335 0.202537 
1175 1 0.023719 -0.115169 0.0217259 0.119576 
3570 2 -0.0255607 -0.127203 -0.086508 0.155941 
237 1 -0.024855 0.0538457 0.100806 0.116957 
490 1 0.0693111 -0.142237 0.08423 0.179248 
50 1 0.0789967 0.0182171 0.0610411 0.101481 
152 1 0.0977543 -0.0181172 -0.248245 0.267413 
3652 2 -0.0791425 -0.0749317 -0.0348358 0.11442 
3823 2 0.0714318 0.0428803 -0.176057 0.194775 
902 1 -0.0450476 0.0313637 0.0620781 0.0828653 
3574 2 0.0249339 0.00856759 0.00836614 0.0276603 
770 1 -0.0105958 0.00300507 -0.0957039 0.0963356 
154 1 -0.0492822 -0.0722605 -0.0201495 0.089757 
116 1 0.0877759 -0.0396715 0.14908 0.177492 
710 1 -0.0611386 -0.14447 -0.0470722 0.163784 
1956 1 -0.0749349 -0.0388788 0.0339366 0.0909862 
1810 1 -0.115606 0.0138692 -0.0127504 0.117131 
2072 1 -0.0337397 -0.0113866 -0.0789259 0.0865871 
1649 1 -0.0593545 -0.0271111 -0.114068 0.131413 
186 1 -0.132782 0.0542392 0.0430926 0.149766 
1063 1 -0.247978 0.202166 -0.155964 0.355934 
432 1 -0.124189 0.0692966 -0.0526477 0.151647 
2495 1 -0.054094 -0.153563 -0.0116252 0.163227 
3896 2 -0.0562102 0.0151008 -0.100567 0.116196 
1071 1 -0.0416057 -0.00726654 0.0566175 0.0706355 
913 1 0.037657 0.0395243 -0.00707674 0.0550482 
1068 1 -0.114216 0.0639693 -0.108784 0.170209 
265 1 -0.0831697 -0.0469603 -0.0985502 0.137239 
1287 1 0.018916 0.0234831 0.0323803 0.0442466 
3799 2 0.152987 -0.110781 -0.115666 0.221486 
554 1 0.168355 -0.0605765 0.0190892 0.179937 
1414 1 -0.0160406 0.0511501 -0.051025 0.074008 
213 1 -0.00399708 0.0262039 0.0573713 0.0631988 
341 1 -0.0924485 -0.009912 0.0410011 0.101617 
3682 2 0.0324432 0.10105 -0.0400448 0.113434 
754 1 -0.0277587 0.0208179 0.0355049 0.049644 
112 1 -0.0205236 0.0710582 -0.00316221 0.0740303 
1041 1 -0.00326871 0.00891426 -0.0516762 0.0525412 
119 1 0.0583149 0.0843887 -0.0652028 0.121546 
3998 2 0.0807974 -0.0593775 0.169382 0.196835 
995 1 -0.0429701 -0.0124098 -0.0339416 0.0561468 
4128 2 0.0482603 -0.0472177 0.240951 0.250232 
8 1 0.0206349 0.0549894 -0.00283882 0.0588021 
94 1 0.0401348 0.0853643 -0.0316477 0.099496 
48 1 0.0905674 -0.0324757 0.128352 0.16041 
437 1 0.0780176 -0.0330611 -0.0103294 0.0853609 
3866 2 0.0512295 0.0159761 -0.0367708 0.0650522 
2206 1 0.0346423 0.029179 -0.0486663 0.0664824 
3490 2 -0.00721106 0.0160218 -0.133989 0.135136 
3072 1 0.0036211 -0.12259 0.047808 0.131633 
3002 1 0.158214 0.0479047 -0.0302121 0.168046 
92 1 0.0309826 0.0687224 0.0481355 0.0894411 
335 1 0.057012 0.0304271 -0.0417195 0.07692 
3815 2 -0.00380774 0.0693576 -0.0124892 0.0705759 
1186 1 -0.0261849 -0.0314098 -0.0147764 0.0434806 
1114 1 0.0821014 -0.0850932 0.0307393 0.122174 
1821 1 -0.123536 -0.0680653 -0.0300165 0.144205 
1922 1 0.0121482 -0.0810369 0.0504056 0.0962044 
451 1 -0.104546 -0.0430907 -0.0100182 0.113521 
3960 2 -0.031143 -0.0408757 0.077698 0.093154 
100 1 -0.0777268 -0.0804476 -0.0109842 0.112401 
1180 1 0.0563273 -0.0327221 -0.0990722 0.11857 
165 1 0.0631164 0.0077059 -0.0509129 0.0814566 
388 1 -0.0442339 -0.00307886 -0.118545 0.126567 
3742 2 -0.0379011 -0.0617445 0.028409 0.0778199 
323 1 -0.0889657 0.0646249 0.06853 0.129567 
288 1 -0.12518 0.0319703 -0.0485731 0.138027 
3942 2 -0.0987883 0.12824 0.107229 0.194172 
66 1 0.0342169 0.0658121 0.11587 0.137579 
340 1 0.124676 0.0820313 -0.040745 0.154704 
138 1 -0.0273949 0.0195838 0.083982 0.090482 
879 1 -0.0863858 0.0243421 -0.0455101 0.100629 
3808 2 0.0760714 0.190836 -0.0647359 0.215398 
834 1 0.130837 0.0408428 0.00444918 0.137136 
18 1 -0.0365955 -0.0702512 -0.132037 0.153975 
3679 2 0.150317 -0.0846463 -0.112091 0.205729 
52 1 0.00483691 -0.196077 0.0348298 0.199205 
407 1 -0.00178038 0.126606 -0.0923764 0.156734 
360 1 0.0537859 0.0123965 -0.0435009 0.0702775 
2885 1 -0.0787847 -0.0130065 0.0188545 0.0820469 
3526 2 -0.0809182 -0.244412 -0.0116253 0.257721 
310 1 -0.100015 -0.0365179 -0.07176 0.128398 
326 1 0.0633603 -0.0452041 0.0748727 0.107999 
227 1 -0.0571194 -0.0862438 -0.0921778 0.138555 
2068 1 -0.0303033 0.0218522 -0.182678 0.18646 
456 1 0.122805 -0.0124047 0.0699138 0.141855 
279 1 0.0894947 0.0601896 0.173476 0.204269 
305 1 -0.0180412 -0.00226283 0.0708699 0.0731652 
49 1 0.019652 -0.0147964 -0.0130849 0.0278631 
3512 2 0.0606062 -0.207442 0.00410061 0.216153 
11 1 -0.0636393 -0.146688 -0.0352446 0.163736 
189 1 -0.165639 0.0569007 -0.0580697 0.184516 
2271 1 -0.0541973 -0.115659 -0.106747 0.166461 
319 1 -0.19141 -0.0647797 0.0341346 0.204938 
3566 2 0.083226 0.000608127 -0.0456787 0.0949394 
71 1 0.0150003 0.00378851 0.0288046 0.0326966 
1560 1 -0.0910389 0.0671955 0.0663071 0.131149 
190 1 -0.0780077 -0.0226984 0.138393 0.160477 
123 1 0.0539535 -0.00888855 0.0833907 0.0997196 
27 1 0.00253427 -0.0484485 0.0632257 0.0796942 
162 1 -0.0157402 0.058197 -0.0194659 0.0633527 
255 1 -0.151553 -0.0403236 0.019739 0.158063 
304 1 -0.00719836 0.0179038 -0.102206 0.104012 
321 1 0.0215123 -0.0344323 0.132355 0.138442 
682 1 -0.085678 0.00360148 -0.0151439 0.0870806 
3469 2 0.0193384 0.000129747 -0.0928172 0.0948104 
3539 2 -0.00432958 -0.00787865 0.0926565 0.0930916 
128 1 -0.0102745 -0.071823 -0.0971739 0.121272 
3562 2 0.10965 0.00617724 0.0976696 0.146972 
560 1 -0.202311 -0.0731337 -0.0801853 0.229582 
212 1 0.0565203 0.0176534 -0.0590829 0.083648 
355 1 0.0238984 0.0424758 0.0691611 0.0846084 
156 1 0.0219597 0.0497189 0.0569491 0.0787235 
3620 2 0.110916 -0.0424126 0.00441076 0.11883 
1823 1 0.162187 -0.195064 -0.0780901 0.265429 
1805 1 -0.136657 -0.00964776 0.13165 0.19 
2599 1 -0.0798788 0.064639 0.0986158 0.142422 
327 1 0.13103 0.0862103 0.0678661 0.1709 
137 1 0.0726575 0.0295955 -0.0333251 0.0852383 
2334 1 0.018249 -0.000267135 0.0113589 0.021497 
3698 2 -0.00785044 -0.0112054 -0.0682056 0.0695644 
555 1 -0.0271182 -0.0195661 -0.0230535 0.0406164 
4178 2 0.00732162 -0.000223913 -0.0217933 0.0229914 
290 1 0.0434892 -0.0250062 -0.0989579 0.110947 
284 1 0.00405926 0.0720463 0.037436 0.0812933 
3543 2 -0.0471189 -0.113785 -0.0139268 0.12394 
366 1 0.019489 -0.00238362 0.141681 0.143034 
55 1 0.0437593 0.037933 0.0327888 0.0665499 
273 1 -0.00592849 0.0350959 -0.118812 0.124029 
3468 2 0.0734547 0.00363904 0.177044 0.191712 
316 1 0.140401 0.0442808 0.16524 0.221309 
81 1 -0.0410684 -0.0338859 0.00228878 0.0532927 
322 1 0.0477021 -0.0199007 0.0532311 0.0741962 
239 1 0.0700934 -0.00164336 -0.035729 0.0786915 
734 1 -0.0226287 -0.102341 -0.0365539 0.111004 
384 1 -0.0295833 -0.0985689 -0.0974203 0.14171 
3476 2 0.0465442 0.0894973 0.0167334 0.102255 
311 1 0.00021932 -0.109653 -0.0124787 0.110361 
3471 2 0.0457208 0.0200868 0.0651243 0.0820674 
1938 1 0.0610315 -0.0192268 0.00392938 0.0641089 
139 1 0.116435 0.0812577 -0.074629 0.160404 
727 1 0.0956318 -0.164602 -0.0860971 0.20893 
1885 1 0.0408106 0.0776507 0.0451646 0.098666 
2184 1 0.213348 0.0325635 -0.0305882 0.217976 
2494 1 -0.158879 0.0295951 -0.0900103 0.184987 
2091 1 0.0148548 0.00205486 -0.0398526 0.0425807 
281 1 0.0300553 0.110512 0.163747 0.199823 
863 1 -0.0488106 0.0929285 -0.0062388 0.105153 
176 1 -0.0690084 0.0414823 -0.107346 0.134187 
3710 2 0.0213493 0.0453026 -0.0644386 0.0816116 
3572 2 -0.0638014 -0.0782027 -0.0979487 0.140642 
4197 2 0.0436499 0.0255238 -0.148818 0.157174 
343 1 -0.0417362 -0.0126239 -0.0876881 0.097931 
282 1 0.00944294 0.00168459 -0.0802613 0.0808324 
1038 1 0.0330749 0.0258307 0.0867457 0.0963638 
408 1 0.132926 -0.0563279 0.0411312 0.150113 
412 1 0.0967533 0.00803526 0.0723979 0.121108 
820 1 0.0821148 0.0737607 0.14801 0.184636 
585 1 -0.0308453 -0.0422162 -0.0751231 0.0915266 
3609 2 0.0314132 -0.137428 0.0646568 0.155092 
719 1 0.00851833 -0.0447767 -0.00473892 0.0458255 
608 1 0.0966265 0.123171 0.115564 0.194583 
106 1 -0.00889178 0.0566693 -0.000662439 0.0573665 
1047 1 -0.075685 -0.0678036 -0.0466811 0.111824 
3573 2 0.0832675 0.0605774 -0.0596655 0.119009 
751 1 -0.00428383 -0.0727771 -0.0627175 0.0961683 
259 1 0.0328577 0.00770746 -0.0459515 0.0570138 
245 1 -0.036379 0.0241713 0.00663045 0.0441774 
613 1 -0.0109432 -0.131233 0.060524 0.144931 
4296 2 -0.0302255 0.0453241 -0.00407671 0.0546303 
272 1 -0.107149 -0.143866 -0.0519343 0.18675 
4239 2 -0.194923 -0.0711653 -0.076198 0.221055 
88 1 0.0360891 0.100501 0.0770927 0.131705 
4 1 0.0744374 -0.0270567 -0.0301108 0.0847329 
361 1 0.148634 0.047736 -0.1298 0.203024 
358 1 -0.0424948 0.0734478 0.105822 0.135642 
194 1 0.0123637 0.0029038 -0.083058 0.0840233 
2373 1 0.042703 -0.00944778 -0.0563191 0.0713067 
1982 1 0.0717476 0.00610733 0.0830605 0.109928 
3953 2 0.0441803 0.0749275 0.0779376 0.116792 
414 1 0.0271498 0.0580013 -0.182333 0.193253 
3186 1 0.0532118 -0.0134843 -0.0427071 0.0695501 
177 1 0.0815021 0.0086442 -0.00704502 0.0822615 
1962 1 -0.0286348 0.144093 0.143805 0.205579 
706 1 0.0129646 0.0697554 0.00695367 0.07129 
1544 1 0.0243247 -0.167467 0.0341224 0.17263 
4160 2 -0.00123381 0.0822729 0.0137867 0.0834292 
19 1 -0.060057 0.112215 -0.052087 0.137521 
3624 2 -0.0675316 0.0253403 -0.0647542 0.0969317 
115 1 0.0323854 0.0246764 -0.152259 0.157609 
1102 1 -0.0631886 -0.00796531 0.078921 0.101414 
2048 1 0.125921 0.0449805 0.04817 0.142126 
649 1 0.0236373 0.0634983 -0.00573716 0.0679976 
113 1 -0.00709076 -0.111015 0.0296848 0.115134 
1150 1 0.0252714 -0.0139099 -0.00188812 0.0289083 
620 1 0.0295148 -0.100958 0.0452071 0.114487 
739 1 0.0468913 -0.0146382 -0.164401 0.171583 
2412 1 -0.0520206 -0.00458046 0.015278 0.0544109 
3746 2 0.0900272 0.00428669 -0.214035 0.232238 
1225 1 -0.0126855 -0.0207094 0.185991 0.18757 
241 1 0.129074 -0.0625959 -0.0101302 0.143809 
83 1 0.0482924 -0.0557712 -0.00235081 0.0738113 
1006 1 0.0690717 0.019724 -0.0239851 0.0757313 
4046 2 -0.0776929 -0.0679431 -0.047915 0.113791 
96 1 -0.0616202 -0.165146 0.0804376 0.193754 
411 1 0.145865 0.0682174 0.0303721 0.163868 
2454 1 -0.0143018 -0.0312457 0.0603213 0.0694225 
404 1 0.0341056 0.0570516 0.0363933 0.0757796 
226 1 0.0453728 -0.0301375 0.0292175 0.0618112 
534 1 0.050637 -0.0483009 0.132626 0.149956 
3538 2 -0.0946488 0.0488039 -0.0412165 0.114188 
761 1 0.0403411 -0.0382326 0.0487343 0.07392 
246 1 0.0538379 0.0347996 -0.0435303 0.0774882 
2229 1 -0.128146 -0.0932544 -0.0717428 0.173968 
146 1 0.0378578 -0.167261 -0.0800237 0.189244 
3608 2 -0.0734704 -0.0228452 0.0472643 0.0902979 
503 1 0.0918442 -0.0471796 -0.037952 0.110007 
505 1 0.123892 -0.107049 0.0220476 0.165211 
1430 1 -0.0255179 -0.0849324 -0.0848864 0.122761 
97 1 -0.172896 0.0726178 -0.059817 0.196836 
1723 1 -0.00570646 -0.0494259 -0.0863317 0.0996426 
3561 2 0.00802268 0.195695 -0.0518587 0.202609 
20 1 -0.0635224 0.0131563 0.0165377 0.0669454 
263 1 -0.0570723 0.16294 -0.0145882 0.173262 
817 1 0.0882402 -0.091165 0.0354974 0.131748 
1034 1 -0.0609122 0.0572386 0.00544169 0.0837626 
353 1 -0.00813868 -0.109904 0.160931 0.195049 
1260 1 0.0309813 0.110384 -0.0811004 0.140434 
998 1 0.026566 0.114439 -0.0695587 0.13653 
1932 1 0.100298 -0.101229 -0.0656525 0.156899 
36 1 0.0546374 -0.184126 -0.102889 0.217885 
38 1 0.0298754 0.0664802 -0.0650506 0.097692 
3130 1 0.0290581 0.0221997 -0.0333558 0.0494956 
1973 1 0.112932 0.12319 0.117614 0.204359 
307 1 0.111263 -0.0350784 0.0571032 0.129888 
2714 1 0.0823294 0.0221081 -0.0304668 0.0905269 
28 1 0.0322287 0.0867615 -0.00850995 0.0929445 
1937 1 0.0123745 0.0872288 -0.0680211 0.111305 
562 1 -0.0660565 -0.11942 -0.0452123 0.143767 
3011 1 0.0211157 0.0282122 -0.00403254 0.0354692 
410 1 0.0624385 -0.163129 0.0505553 0.181839 
693 1 0.11753 0.0602296 0.165199 0.211499 
367 1 0.00641803 0.0116877 -0.0128896 0.0185455 
318 1 0.0627458 0.0365145 -0.170668 0.185467 
735 1 0.163994 0.0180113 0.0367073 0.169014 
600 1 0.0281427 -0.00498158 0.0525104 0.0597844 
3590 2 0.0869412 0.127607 0.0927044 0.180101 
3636 2 0.0470775 -0.0663527 -0.0183217 0.0833946 
26 1 -0.128666 0.00356669 0.102898 0.16479 
1199 1 0.0653169 0.104863 -0.0602909 0.137468 
614 1 0.00086932 0.100403 -0.115963 0.153391 
459 1 -0.122003 -0.0264743 -0.0337959 0.129336 
3645 2 0.0650396 0.114071 0.0478154 0.139745 
574 1 0.0652006 -0.0748668 0.141226 0.172629 
780 1 0.13922 0.0365447 0.0124492 0.144474 
161 1 -0.0915313 -0.035769 0.188501 0.212579 
309 1 0.0984458 0.0623026 -0.021596 0.118489 
365 1 0.0849002 -0.115773 0.0465979 0.15094 
191 1 -0.0769375 0.0768173 -0.0186503 0.110309 
1766 1 -0.0656207 -0.0616467 0.0041338 0.0901304 
2775 1 0.107746 -0.0884051 0.00796379 0.1396 
1030 1 0.0680896 -0.172392 0.0320623 0.188104 
1505 1 0.164739 0.164466 0.155482 0.279934 
3872 2 -0.0533715 0.0427674 -0.0432585 0.080925 
580 1 -0.0142393 -0.0366445 0.0228904 0.0454923 
2054 1 0.00290465 -0.0984034 -0.00328953 0.0985012 
2064 1 0.0341863 0.0265592 0.0377959 0.0574685 
529 1 0.0220345 0.0100614 -0.0507378 0.0562234 
402 1 -0.0433333 0.073393 -0.0125936 0.0861563 
124 1 -0.126568 -0.0350534 0.0244452 0.133588 
744 1 0.111057 -0.0288063 0.0676596 0.133196 
185 1 0.0547335 -0.0569015 0.0976918 0.125607 
315 1 0.0626298 -0.0266963 -0.000436768 0.0680836 
655 1 0.00470655 -0.0994947 0.185237 0.210319 
765 1 0.053598 -0.0194142 0.0486411 0.0749374 
140 1 -0.0357208 0.016382 -0.157925 0.162741 
59 1 0.0744628 -0.0659569 0.0891816 0.133598 
54 1 0.0580761 0.0854062 0.0423542 0.111629 
3506 2 -0.0237089 0.107554 -0.126869 0.168005 
666 1 0.0606822 -0.235286 0.105918 0.265067 
43 1 0.079082 0.0521975 0.140981 0.169866 
334 1 -0.121153 -0.0772392 0.102618 0.176563 
267 1 0.111427 0.0833972 -0.177889 0.225866 
99 1 0.0944987 0.115077 0.0918359 0.174947 
1189 1 -0.12943 0.014779 -0.179292 0.221621 
201 1 -0.0419763 0.0060327 -0.034394 0.0546017 
380 1 -0.0088588 0.0877005 -0.099035 0.132581 
1777 1 -0.0289602 -0.0144964 -0.064985 0.0726078 
2597 1 0.169511 0.0320243 0.0745026 0.18791 
2484 1 0.173609 -0.0373308 0.055571 0.186069 
308 1 0.0389896 -0.0154344 -0.0860616 0.0957341 
3918 2 0.00426295 0.184452 0.102733 0.211175 
89 1 -0.112312 0.0200814 0.0283434 0.117561 
300 1 -0.0551007 -0.0231265 0.0334647 0.0684895 
3582 2 0.0826708 -0.0394852 -0.0839142 0.124238 
712 1 0.0132762 0.132776 -0.10526 0.169957 
3836 2 -0.0419802 0.114015 -0.0651406 0.137858 
268 1 -0.0344782 0.0166625 0.0885648 0.0964889 
788 1 0.00158449 0.103533 -0.0398425 0.110946 
4091 2 -0.0435928 0.111398 -0.01516 0.120581 
371 1 0.00698109 -0.0267367 0.106666 0.110188 
3505 2 0.133807 0.00667794 -0.0122316 0.134531 
266 1 0.117282 -0.0208565 -0.104711 0.158602 
3571 2 -0.00963262 -0.0735391 0.0781065 0.10771 
637 1 -0.0451476 -0.0135137 -0.0784547 0.0915208 
157 1 -0.0750325 -0.0512111 0.0313401 0.0960971 
257 1 -0.0486851 0.00955733 0.058917 0.0770247 
571 1 0.0181974 0.0251707 0.0670242 0.0738712 
665 1 -0.133724 -0.0637076 0.111449 0.185369 
448 1 -0.198022 -0.153904 -0.00357288 0.250822 
827 1 0.0617477 0.0520027 0.0532278 0.0966968 
3475 2 0.0773669 0.00397684 0.0389619 0.0867149 
73 1 -0.0396767 0.0678076 -0.0375035 0.0870553 
373 1 0.0970143 0.0115209 0.0493566 0.109456 
247 1 0.0316932 0.0138053 -0.0835139 0.0903859 
107 1 0.062453 0.0793215 -0.0771507 0.127061 
675 1 -0.084116 0.00938801 -0.124456 0.150509 
434 1 0.110639 0.0687635 -0.0677388 0.146826 
159 1 -0.0448991 0.0850281 -0.0779245 0.123766 
32 1 0.0483118 0.138736 -0.0407173 0.152445 
3579 2 0.0969111 0.0146813 -0.177437 0.20271 
394 1 -0.0452621 0.00701837 0.0803166 0.092459 
260 1 0.0452869 0.00925671 0.0618819 0.0772396 
3972 2 -0.0585434 0.0581086 0.0747578 0.111322 
1801 1 -0.0422263 0.0558444 -0.00190966 0.0700379 
2122 1 0.0458424 0.0530294 0.201446 0.213293 
1966 1 0.066218 -0.0402245 -0.058957 0.097359 
291 1 -0.0159062 -0.00545179 0.073177 0.075084 
2047 1 0.083559 0.039216 -0.0278346 0.0964093 
1899 1 0.0576088 0.0701029 -0.00491458 0.0908699 
622 1 0.0203085 0.200664 -0.0282413 0.203657 
1993 1 0.0158208 -0.00904418 0.0369221 0.0411745 
62 1 -0.00169835 0.0115538 0.0565349 0.0577284 
2187 1 -0.0646525 0.0669222 -0.0979509 0.135103 
4318 2 0.0966505 0.0286812 0.0657075 0.120339 
44 1 0.0517408 0.0665202 0.0879497 0.121808 
824 1 0.0172361 -0.024859 0.0891655 0.094157 
1282 1 0.0504135 0.0309279 0.0785403 0.098319 
3626 2 0.164036 0.101656 -0.0687124 0.20485 
819 1 0.0897629 0.130067 0.0403653 0.163108 
773 1 -0.117001 -0.159262 0.0679064 0.208962 
270 1 -0.0601819 -0.0538442 -0.0579793 0.0994115 
14 1 -0.157842 -0.0616928 0.0174888 0.17037 
3540 2 0.055839 -0.143789 0.0512623 0.162546 
997 1 0.0496271 0.0716319 -0.122145 0.150045 
4275 2 -0.0363121 -0.0924472 -0.214557 0.236431 
164 1 0.00050796 0.00727856 0.0899135 0.090209 
234 1 0.00250279 -0.00735445 0.035626 0.0364632 
1125 1 -0.00912325 -0.0736676 -0.0797356 0.10894 
3985 2 0.0432966 0.0466569 0.0495231 0.0806474 
328 1 0.0139392 0.00857629 -0.0216286 0.0271228 
3474 2 0.0777933 0.00545605 -0.0654389 0.101803 
543 1 -0.0116601 -0.0347549 0.011051 0.0382882 
293 1 0.0793421 -0.0859111 0.128913 0.174053 
3458 2 0.130046 -0.00471355 0.105984 0.16783 
390 1 -0.0248291 0.00322011 -0.139299 0.141532 
3706 2 0.0620973 -0.226538 -0.203022 0.310472 
2169 1 0.100594 0.046765 -0.102995 0.151374 
1786 1 0.090957 -0.0303163 0.0233944 0.0986892 
1478 1 -0.0442967 0.0288173 0.0533133 0.0750662 
87 1 0.0193634 -0.00687424 -0.0325419 0.038486 
4090 2 -0.101931 -0.0397403 0.0202214 0.111257 
142 1 0.0250985 0.0228144 0.00348542 0.0340966 
1650 1 -0.0801376 -0.118285 -0.00527565 0.142972 
153 1 0.108952 -0.0593817 0.0136563 0.124833 
374 1 0.0124688 -0.0889059 -0.123928 0.153029 
602 1 0.0142084 -0.00992141 -0.144419 0.145455 
1277 1 -0.0406634 0.0342269 0.0217082 0.0574129 
76 1 0.0447097 0.0225528 0.199455 0.205645 
1370 1 0.0419997 -0.0393089 0.0575454 0.0813672 
221 1 -0.0515827 0.038251 -0.0431907 0.0773909 
604 1 -0.0991584 0.00815224 0.0693463 0.121276 
1161 1 0.0140392 -0.062513 0.101704 0.120202 
1718 1 -0.0255851 0.0292906 -0.0840194 0.092584 
178 1 -0.103634 -0.289337 -0.0164608 0.307777 
295 1 -0.177514 -0.100853 -0.00795677 0.204318 
1472 1 -0.0761322 -0.0235682 -0.0594151 0.0994068 
4159 2 -0.00183642 -0.0512579 -0.0157228 0.0536465 
3467 2 0.0555095 0.0344488 -0.0938362 0.114338 
3531 2 -0.0987738 -0.0711678 0.136893 0.183196 
2720 1 0.00671404 0.0299727 -0.0798464 0.0855505 
1851 1 -0.016086 0.00294745 -0.00350299 0.0167248 
732 1 0.0330169 -0.0886749 0.0164151 0.0960355 
446 1 -0.309892 0.0906982 0.103571 0.339096 
3878 2 0.0631805 0.12525 -0.04158 0.146315 
3185 1 -0.14633 -0.00116409 -0.0263341 0.148685 
110 1 -0.12371 0.00716152 -0.00620877 0.124072 
2963 1 -0.0124746 0.0723707 -0.0204471 0.0762314 
2608 1 0.00765367 -0.0117476 0.0391084 0.0415458 
3301 1 0.0240247 0.0336303 0.144383 0.150182 
3759 2 -0.0485636 -0.0393876 -0.0320511 0.0702643 
4171 2 -0.117375 0.0229297 0.103145 0.157929 
2118 1 -0.0238608 0.00970449 -0.0896164 0.0932449 
1742 1 0.0132619 0.00353266 0.0353164 0.0378894 
642 1 0.0582152 -0.252997 -0.0165624 0.260136 
3366 1 -0.058525 0.00308308 0.0518696 0.0782632 
144 1 0.0893044 0.0681482 -0.0487623 0.122463 
681 1 -0.00897697 0.00712756 -0.0510513 0.0523223 
1666 1 0.00436167 -0.0480451 -0.064186 0.0802945 
183 1 -0.0696012 -0.110974 -0.0457726 0.138762 
694 1 -0.0970085 0.034122 0.0712733 0.125119 
444 1 -0.0637909 0.023175 -0.125451 0.142634 
869 1 -0.031691 -0.136513 0.13339 0.193476 
920 1 -0.0879787 -0.160473 0.105961 0.21147 
53 1 0.110325 0.00949471 0.0444347 0.119316 
1450 1 -0.30046 0.00121506 -0.086356 0.312626 
1579 1 -0.00555754 -0.0560046 0.0324896 0.0649845 
51 1 0.0817929 -0.0705048 -0.0253761 0.110928 
4187 2 -0.0503755 -0.0732497 -0.139868 0.16573 
1694 1 0.0256588 -0.0735539 0.257349 0.268882 
1590 1 0.0534469 0.00624134 -0.0404817 0.0673372 
2005 1 0.106451 -0.144288 0.130201 0.221593 
736 1 -0.14836 0.0271235 -0.0377059 0.155461 
363 1 0.152792 0.0147529 0.00464296 0.153572 
230 1 -0.0403869 -0.0169916 0.147006 0.153396 
2538 1 0.0982885 -0.11593 -0.038552 0.156801 
357 1 -0.0444321 0.0167098 -0.0625639 0.0785345 
3849 2 0.193636 -0.0711259 -0.174167 0.269977 
4102 2 0.0388336 -0.139947 0.0598145 0.15707 
1032 1 0.0852366 0.0642072 0.0799978 0.13337 
78 1 0.00322416 0.0464076 -0.00764436 0.0471433 
564 1 0.294553 -0.0784002 0.0937337 0.318895 
797 1 0.147942 -0.0631695 0.0297044 0.163583 
1476 1 0.264769 0.0857931 0.0087146 0.278459 
872 1 -0.0430388 0.0221435 -0.00216565 0.0484496 
475 1 0.0619538 0.0078071 -0.0124146 0.0636658 
4119 2 0.284244 -0.140715 -0.092913 0.330497 
576 1 -0.0775862 0.101166 0.0890488 0.155512 
507 1 0.036524 -0.181415 0.0409301 0.189528 
248 1 0.0336462 -0.0632446 -0.0480124 0.0862389 
3597 2 -0.0549376 0.037618 0.0616966 0.0907729 
539 1 -0.0266862 -0.0538971 0.0145043 0.0618662 
63 1 0.0630078 -0.0414103 0.139765 0.158805 
57 1 -0.0407857 -0.125388 0.0315316 0.135573 
854 1 -0.0815749 -0.025264 0.0230635 0.0884571 
668 1 0.0777106 -0.133126 -0.0619414 0.166127 
385 1 -0.0916841 -0.29356 0.145667 0.340297 
752 1 -0.0130123 0.0477227 -0.0392447 0.0631421 
3650 2 0.0223727 0.159881 -0.110925 0.195875 
3736 2 -0.0846895 -0.205489 0.0826519 0.237127 
254 1 -0.16224 -0.12314 -0.00313766 0.203703 
3637 2 -0.0311253 -0.0803907 -0.0289411 0.0909342 
731 1 -0.0462518 -0.116696 0.0350025 0.130316 
2304 1 0.0811693 -0.171359 0.0367675 0.193143 
610 1 -0.218949 0.0308001 -0.110103 0.247002 
292 1 -0.138121 0.029284 -0.0365302 0.14584 
313 1 -0.0743089 -0.00536247 0.00501413 0.0746706 
2133 1 -0.0362202 -0.0721739 -0.0506725 0.0953345 
646 1 -0.0907128 -0.0210918 -0.0968054 0.134332 
271 1 0.0333363 0.127748 0.0399106 0.137927 
584 1 -0.0464135 0.128102 -0.0447228 0.143403 
3649 2 -0.0873151 -0.0338656 0.0702993 0.117102 
1148 1 -0.0343081 0.128282 0.141004 0.193689 
779 1 -0.134241 -0.0890839 0.0724991 0.176672 
621 1 -0.13043 0.0780241 -0.00601562 0.152105 
16 1 -0.0315543 -0.0588092 0.0941844 0.115434 
3635 2 -0.0974271 -0.25001 0.085591 0.281643 
790 1 0.0983952 0.00991229 0.133872 0.166438 
17 1 -0.0192065 -0.0492124 0.119187 0.13037 