ITEM: TIMESTEP
10
ITEM: NUMBER OF ATOMS
4320
ITEM: BOX BOUNDS pp pp pp
0.0000000000000000e+00 1.9309999999999999e+01
0.0000000000000000e+00 1.9309999999999999e+01
0.0000000000000000e+00 9.6549999999999994e+00
ITEM: ATOMS id type c_displacement[1] c_displacement[2] c_displacement[3] c_displacement[4] 
4012 2 -0.00433907 -0.00462683 -0.005315 0.00827553 
2361 1 -0.00165125 0.0133682 -0.0109826 0.0173797 
79 1 -0.00981536 -0.0205488 0.0134385 0.0264422 
781 1 0.0265039 0.0095317 -0.010554 0.0300782 
461 1 -0.00835759 -0.0216766 0.00289438 0.0234116 
3704 2 -0.0109144 -0.0129 0.0179066 0.0246208 
629 1 -0.0117504 -0.00554737 0.0143496 0.0193586 
1571 1 0.00230789 0.0075105 -0.014923 0.0168651 
58 1 0.0253342 -0.0029277 0.0513353 0.0573211 
1073 1 -0.00780344 -0.0113822 0.00595263 0.0150293 
372 1 0.00206722 0.0127709 -0.0107245 0.0168043 
3504 2 0.0043642 -0.0270521 0.00981419 0.0291064 
4130 2 -0.0138949 -0.0092466 -0.0067845 0.0180166 
1262 1 0.00295206 0.0251293 -0.0224809 0.0338465 
907 1 -0.0205225 -0.0140768 -0.0360036 0.0437675 
3659 2 0.0217123 0.0407199 -0.0251716 0.0525656 
1298 1 0.0227628 0.0226261 -0.0139256 0.0349858 
1716 1 -0.00188049 0.0377875 -0.0124157 0.0398193 
1182 1 -0.00945156 0.00114425 0.0109684 0.014524 
683 1 -0.000374294 -0.0104848 0.0191063 0.0217972 
1958 1 0.0222729 -0.0319416 0.0192292 0.0434294 
1554 1 -0.0018109 -0.0202348 -0.0065681 0.021351 
1037 1 -0.0170177 -0.0515201 0.00710592 0.0547212 
749 1 -0.0287269 0.00146551 0.0115008 0.0309783 
3628 2 0.023119 0.0174289 0.0147236 0.0324814 
946 1 -0.0133796 0.00889343 -0.00970238 0.0187681 
2232 1 0.0209512 0.00921878 -0.0181526 0.029214 
7 1 -0.000713631 -0.0192772 -0.00799379 0.0208811 
501 1 0.0121066 0.0404588 -0.0281536 0.0507554 
179 1 -0.00398285 -0.00205414 -0.0269183 0.0272887 
714 1 0.0119782 -0.0094835 0.0385221 0.0414411 
4166 2 0.00191881 -0.0122198 -0.0302167 0.0326505 
276 1 -0.0124871 0.0133968 0.00723213 0.0196903 
767 1 -0.0185847 -0.00286304 0.0288276 0.0344182 
3890 2 -0.0343826 -0.00650847 -0.0162868 0.0385977 
6 1 -0.0102308 0.0166707 0.0122324 0.0230697 
2086 1 -0.00334609 -0.00237033 0.0165106 0.0170121 
224 1 -0.00758763 -0.00130765 -0.0010601 0.00777213 
3660 2 0.01631 0.0175357 0.000903023 0.0239652 
596 1 -0.0138741 -0.00275518 -0.0165417 0.0217648 
1214 1 -0.00776714 -0.012026 0.00139352 0.0143838 
3686 2 0.0138368 0.0118188 -0.000174725 0.0181981 
427 1 -0.00786264 0.0178758 0.0138275 0.0239283 
350 1 0.000700526 0.0213603 0.00963834 0.0234446 
85 1 -0.00918673 -0.00341728 -0.00909867 0.0133738 
598 1 -0.0163119 -0.000596519 0.0276136 0.0320771 
3554 2 -0.00114004 -0.0147076 -0.00382981 0.0152408 
29 1 -0.00322082 0.0222212 0.01252 0.0257081 
464 1 -0.0216398 0.00949583 -0.00133875 0.0236695 
3619 2 -0.000517392 0.00658883 0.0223434 0.0233004 
12 1 0.0363539 -0.0486922 0.0286908 0.0671989 
364 1 -0.0233747 0.019245 -0.00304344 0.0304304 
1849 1 -0.0279975 -0.000746994 0.0265165 0.0385687 
3663 2 -0.0155637 0.00883853 -0.0353303 0.0396053 
3517 2 0.0178766 0.00920025 0.00796192 0.0216243 
25 1 0.0195904 -0.0172058 0.00266706 0.0262094 
4163 2 -0.0154392 0.0111577 -0.00436047 0.0195416 
399 1 -0.00351788 0.000714339 -0.00229156 0.00425875 
4265 2 0.000453326 0.0229432 -0.00197932 0.0230329 
527 1 -0.0295356 0.0218707 -0.00881367 0.0377937 
200 1 0.00725632 -0.0117722 -0.0012747 0.0138875 
1951 1 0.0154768 0.00624298 -0.00384042 0.0171247 
644 1 0.0110302 -0.0120367 0.0222325 0.0275832 
193 1 -0.0124549 0.0268349 -0.00866869 0.0308283 
550 1 -0.00314859 -0.0114412 0.00286995 0.0122087 
69 1 -0.0133298 -0.0271794 0.021868 0.0373445 
842 1 0.0010287 0.0133546 -0.0365563 0.0389328 
578 1 -0.0315507 0.0214588 -0.0115803 0.0398752 
172 1 0.00361749 -0.0354462 0.0038653 0.0358394 
381 1 -0.0194293 0.0388433 -0.0164737 0.0464509 
3524 2 0.0286336 -0.0302365 0.0113368 0.0431584 
688 1 0.00445157 0.0160832 0.00871532 0.0188266 
3651 2 0.00544376 0.0201644 -0.00116215 0.0209186 
2367 1 -0.0101949 0.00268679 -0.0113 0.0154547 
1244 1 -0.00706935 0.0240052 0.0302592 0.0392663 
796 1 -0.0337714 0.0134385 0.00340377 0.036506 
691 1 0.0187287 -8.88037e-05 0.00576194 0.0195952 
421 1 -0.0023895 -0.00130004 0.0370023 0.0371021 
597 1 -0.0224071 0.0185475 -0.0063463 0.0297719 
3617 2 -0.00119315 0.00608557 -0.0183301 0.0193507 
120 1 0.00448076 -0.00709572 -0.00526246 0.00990555 
769 1 -0.0164802 0.0242925 0.00479375 0.0297439 
2142 1 0.00904294 0.00334763 0.00443821 0.010615 
3611 2 0.0226554 0.0193876 0.0175126 0.0345809 
1915 1 -0.0162781 0.0120223 -0.00675195 0.0213331 
2140 1 -0.00915674 0.00509737 0.0177952 0.0206518 
3828 2 0.0273528 0.00154694 0.00878705 0.0287712 
2192 1 0.0165142 -0.0106446 0.0251923 0.0319481 
175 1 0.0137438 0.0103504 -0.0156818 0.0232796 
2011 1 0.00723459 0.0135881 -0.00180115 0.0154991 
75 1 -0.0123127 0.00825366 0.0227512 0.027154 
547 1 -0.0183055 0.0141514 -0.00315736 0.0233522 
4316 2 0.017463 0.0129592 0.011565 0.0246302 
559 1 -0.000440338 -0.000978172 -0.0161739 0.0162094 
717 1 0.0356506 -0.0172222 0.00487269 0.0398912 
242 1 0.00434785 -0.000676039 0.0148693 0.0155067 
3510 2 -0.00172013 0.00119433 -0.00379721 0.00433637 
130 1 -0.0111879 -0.0209738 0.0104817 0.0259796 
143 1 -0.000181544 -0.000843289 -0.00566946 0.00573471 
202 1 -0.0230253 0.0015942 -0.0295259 0.0374765 
182 1 -0.0315482 0.0227438 0.00167761 0.0389279 
84 1 0.00265572 -0.0288536 -0.0145189 0.0324096 
3633 2 -0.0023962 -0.0200541 0.0148887 0.0250915 
35 1 -0.0379682 -0.0223571 0.00782802 0.0447516 
3612 2 0.00392324 0.0265605 -0.03343 0.0428768 
40 1 0.0248644 0.0203679 0.0150485 0.0354901 
4005 2 0.0174372 -0.0181755 0.00518456 0.0257155 
718 1 0.0119882 0.0300608 0.00411542 0.0326237 
134 1 0.00849672 -0.0247324 -0.0120956 0.028813 
511 1 -0.00437332 -0.0256887 0.0360252 0.0444618 
757 1 0.014211 0.041336 -0.00435875 0.0439274 
3555 2 -0.0223013 -0.00732084 -0.00029059 0.023474 
3481 2 0.0050578 0.0184718 0.0147452 0.0241704 
135 1 0.00478527 -0.0165195 0.00547121 0.0180479 
369 1 0.0157922 -0.0124104 0.0229984 0.0305342 
2148 1 0.00330642 0.00650503 -0.0141533 0.0159237 
3462 2 0.0173296 -0.0214131 -0.0249423 0.0371612 
1914 1 -0.0210189 -0.0224679 -0.00783041 0.0317477 
3661 2 0.0158233 -0.0120252 0.00777536 0.021341 
1871 1 0.0103662 0.00431532 -0.00351084 0.0117646 
320 1 -0.014833 -0.0126287 -0.00843111 0.021227 
582 1 -0.0199583 -0.0176083 0.0117665 0.0291005 
766 1 -0.0111702 0.00348118 -0.00640327 0.0133377 
3552 2 -0.00274945 -0.00913969 0.00417289 0.0104166 
2290 1 -0.0107328 0.0217511 0.0226049 0.0331554 
1794 1 -0.0004289 -0.0143404 0.00402611 0.014901 
753 1 -0.026177 0.00809154 -0.0102945 0.0292691 
396 1 -0.00890834 -0.0162932 0.00797737 0.0202105 
496 1 0.000400612 0.0230042 -0.0092131 0.0247837 
480 1 -0.00712267 -0.0190981 0.0163167 0.0261094 
253 1 0.012441 -0.00152107 -0.0113158 0.0168861 
4033 2 0.00497261 0.0102321 -0.00754893 0.0136532 
347 1 -0.0146091 -0.00376121 0.0208807 0.0257599 
586 1 0.000505113 0.0027995 -0.028561 0.0287023 
3671 2 0.0348864 0.00345526 -0.0306818 0.0465873 
37 1 -5.80271e-05 -0.00406785 0.00511699 0.00653715 
782 1 0.000617169 -0.00445799 -0.00239828 0.00509964 
481 1 0.00124313 -0.00786927 -0.0177605 0.0194655 
392 1 -0.0121313 0.000754591 -0.0298543 0.0322338 
333 1 -0.00404515 -0.00944668 -0.0138859 0.0172749 
342 1 0.00917146 0.0132808 -0.0133065 0.0209179 
1179 1 -0.0068497 -0.000779564 -0.00619562 0.00926886 
517 1 -0.0105929 -0.00256959 -0.0123993 0.0165093 
1824 1 0.0136776 -0.0107251 0.0352917 0.0393397 
34 1 -0.00965813 0.0100191 0.0157781 0.0210383 
398 1 0.0138913 -0.00126183 -0.00144702 0.0140234 
170 1 -0.0176389 -0.00934731 -0.011138 0.0228595 
235 1 4.94612e-05 -0.0365158 -0.00513855 0.0368756 
3852 2 -0.00216906 -0.0272606 -0.00275053 0.0274847 
816 1 0.0112774 -0.00106585 0.01077 0.0156304 
3931 2 -0.0114983 -0.0253108 0.027577 0.0391579 
274 1 -0.013062 -0.0116231 -0.0116816 0.0210279 
30 1 0.0167522 4.2838e-05 -0.00756994 0.0183832 
2066 1 0.0281845 -0.0193585 0.0195542 0.0393889 
1082 1 0.0147345 0.0149407 0.000858363 0.0210016 
1372 1 -1.32501e-05 -0.00033288 0.0166134 0.0166167 
1265 1 0.00566556 0.00732271 -0.0190149 0.0211491 
601 1 0.0230614 0.0103035 0.023007 0.034166 
540 1 0.00762765 0.0217045 0.0169402 0.0285699 
589 1 -0.00375707 0.0222302 -0.00427538 0.0229473 
958 1 0.00125239 0.010676 -0.0190525 0.0218757 
504 1 -0.0232197 0.0140972 0.00977232 0.0288684 
1349 1 0.00674017 0.0279169 0.0164144 0.0330789 
9 1 -0.00348619 -0.0212117 0.0096647 0.023569 
149 1 0.00949947 0.0118376 0.0190741 0.024376 
163 1 0.0109198 0.0136045 -0.0218007 0.0279212 
4247 2 0.00351807 -0.00735112 -0.0192408 0.0208955 
1584 1 0.0364359 -0.0110182 -0.0379337 0.0537396 
3570 2 -0.0167699 -0.00937874 -0.00737567 0.0205813 
237 1 0.00514802 0.00530036 -0.00602596 0.00953458 
490 1 -0.00127744 -0.00604391 0.0214729 0.0223438 
50 1 -0.0140399 -0.03349 0.0164351 0.0398599 
152 1 -0.00319365 0.00610965 0.0122211 0.0140315 
3652 2 0.0151358 -0.00239683 -0.00507959 0.0161444 
3823 2 -0.0100118 0.0135008 -0.0126496 0.0210362 
902 1 0.00915191 0.0222402 -0.0056962 0.024715 
3574 2 -0.00684126 0.00946656 -0.0142537 0.0184279 
770 1 0.000662066 -0.016812 0.00130524 0.0168756 
154 1 0.00790679 0.00496445 -0.0189132 0.021092 
116 1 0.019176 -0.0202561 0.00169869 0.0279449 
710 1 -0.0213922 -0.0345162 0.00584224 0.0410259 
1956 1 -0.00816061 0.0198929 -0.0384274 0.0440339 
1810 1 -0.0234691 -0.00478885 0.022457 0.0328336 
2072 1 -0.00162591 -0.0128657 -0.0256908 0.0287782 
1649 1 0.0111152 -0.00912266 -0.00689942 0.0159491 
186 1 -0.00562021 -0.0229449 0.02411 0.0337542 
1063 1 -0.00679249 0.00131373 -0.0242443 0.0252121 
432 1 -0.0187754 0.0104881 -0.0229837 0.0314764 
2495 1 -0.0246919 -0.0226475 0.0193962 0.0387145 
3896 2 -0.00463146 -0.00437893 -0.00467374 0.00790375 
1071 1 -0.011415 -0.00793894 -0.014527 0.0201088 
913 1 0.0202882 -0.0271482 0.0107484 0.0355551 
1068 1 0.0295667 0.0103141 0.00874116 0.0325112 
265 1 -0.0105473 0.00649285 0.00815617 0.0148299 
1287 1 -0.00321792 0.0268624 -0.00763327 0.0281107 
3799 2 -0.00371491 -0.00619262 -0.0133475 0.0151758 
554 1 0.00415815 -0.000234139 -0.0163569 0.0168788 
1414 1 -0.0075218 0.0157984 -0.0289353 0.0338145 
213 1 0.00726886 -0.0183572 -0.00394224 0.0201336 
341 1 -0.0146196 -0.00727191 -0.0103637 0.0193396 
3682 2 -0.0197962 0.0015072 -0.0237214 0.0309332 
754 1 -0.00932289 0.0436573 -0.00836754 0.0454191 
112 1 -0.0087891 0.00758108 0.0010682 0.011656 
1041 1 -0.0159615 -0.0444349 -0.00211583 0.0472621 
119 1 -0.00442219 -0.0170593 0.0269436 0.0321952 
415 1 0.0140628 0.00421045 -0.00454905 0.0153683 
995 1 0.00995758 0.0172868 0.004805 0.0205201 
4128 2 -0.0141454 -0.0140874 0.0320071 0.0377227 
8 1 0.0234084 0.0222777 -0.00159482 0.0323542 
94 1 -0.00733543 -0.00669022 0.0143744 0.0174697 
48 1 -0.010255 -0.00152425 -0.00352967 0.010952 
1270 1 0.0168684 -0.0182001 0.00731599 0.0258711 
3866 2 0.00310961 0.00313401 -0.00487941 0.0065803 
2206 1 0.0104414 -0.00905905 0.00162857 0.0139191 
3490 2 -0.00943875 -0.0218478 -0.012733 0.0269916 
3072 1 0.00379757 -0.0101736 0.0308137 0.0326712 
3002 1 0.0267328 -0.0230064 0.0121865 0.0373155 
92 1 -0.00885693 0.0365917 0.0127232 0.0397401 
335 1 -0.010745 0.0174838 -0.0139047 0.0247887 
4034 2 -0.0297212 -0.020557 0.00445986 0.036412 
1186 1 0.00840824 0.00340112 0.00227786 0.00935172 
1114 1 0.030001 0.00648493 0.00350157 0.030893 
1821 1 -0.00884636 -0.00944873 -0.00935595 0.0159709 
1922 1 -0.00972388 -0.024394 -0.0113373 0.0286034 
451 1 -0.0110906 -0.0111794 -0.00913444 0.0182049 
3960 2 0.00157169 -0.0056256 0.00046961 0.00585988 
100 1 -0.0102993 0.0125999 -0.00321763 0.0165887 
1180 1 -0.00909935 -0.020077 -0.0108057 0.0245489 
165 1 0.022718 0.00508679 -0.0071498 0.0243537 
388 1 -0.0200892 -0.0174004 -0.013217 0.0296823 
3742 2 0.0283574 -0.0096385 0.0173105 0.0345933 
323 1 -0.0134692 0.019519 -0.0341924 0.0416117 
288 1 -0.0106976 0.0010657 0.0112716 0.0155763 
3942 2 -0.0116777 0.0163159 0.029777 0.0359061 
66 1 0.0066109 0.0146083 0.00957856 0.0186777 
340 1 -0.000162546 -0.0333914 0.0102787 0.034938 
138 1 -0.00684272 0.0212512 0.000940679 0.0223455 
879 1 -0.000221487 0.000777171 -0.00750285 0.00754624 
3808 2 0.0076962 -0.0178807 0.00590517 0.0203426 
834 1 -0.0161505 0.00339051 0.00631553 0.0176698 
18 1 -0.00746336 -0.0144302 -0.021031 0.0265751 
3679 2 -0.00362145 -0.00722947 0.00238209 0.00842938 
52 1 -0.00638137 0.00530527 -0.00330942 0.00893421 
407 1 -0.0255753 -0.000751014 -0.0112291 0.0279419 
360 1 0.0227408 0.0076694 -0.0427752 0.0490477 
2885 1 -0.0100759 -0.0154735 -0.0134525 0.0228457 
3526 2 0.00136408 -0.0316332 -0.00768889 0.0325828 
310 1 -0.0255003 8.62491e-06 0.0066274 0.0263474 
326 1 0.00542703 -0.0149913 0.0111739 0.0194692 
227 1 -0.00272114 -0.00070498 0.004772 0.00553837 
2068 1 -0.0124234 -0.0292412 -0.03155 0.0447749 
456 1 -0.000413927 -0.00184798 0.00632475 0.00660218 
279 1 -0.015027 0.00980484 0.0129411 0.0221228 
305 1 -0.0353814 0.00226587 -0.00311832 0.0355908 
49 1 0.0111506 0.000607318 0.00735065 0.0133693 
3512 2 -0.00842172 -0.0290431 0.0187947 0.0356043 
11 1 -0.0022568 -0.0151454 -0.00798688 0.0172704 
189 1 0.0023825 0.0129018 0.0209926 0.0247552 
2271 1 -0.00516593 -0.00991936 -0.0136095 0.0176153 
319 1 -0.0211345 -0.00751092 -0.00832505 0.0239246 
3566 2 -0.0109208 0.0104076 -0.00375869 0.015547 
71 1 -0.0226899 0.00485322 -0.00358437 0.0234783 
1560 1 -0.0113481 -0.00527389 0.0205186 0.0240334 
190 1 0.00630291 -0.0100364 0.000231856 0.0118537 
123 1 0.0134172 0.00687628 0.0140863 0.0206332 
27 1 -0.0138803 0.00148059 -0.0113682 0.0180025 
162 1 0.000764893 0.00251174 -0.0223163 0.0224702 
255 1 -0.0211477 0.00807746 -0.0138068 0.026516 
304 1 -0.0230118 0.00371177 -0.0100213 0.0253722 
321 1 -0.000894977 -0.0226439 0.0325192 0.0396365 
682 1 -0.0197453 -0.00144897 -0.00226717 0.0199278 
3469 2 0.0316029 0.0268716 -0.0211932 0.046583 
3539 2 0.0193175 0.0263339 0.00601867 0.0332094 
128 1 0.0230602 -0.0118217 0.00156341 0.0259609 
3562 2 0.0298888 0.00970108 0.00563556 0.0319251 
560 1 -0.0179834 -0.0132479 0.0121778 0.0254403 
212 1 0.0135614 0.00787766 0.00963352 0.0184058 
355 1 0.00250014 0.0179652 0.0305776 0.0355526 
156 1 0.030286 0.00310935 0.0112786 0.0324672 
3620 2 -0.0133847 -0.00562731 0.0102514 0.0177738 
1823 1 0.0345315 -0.0340386 -0.0185812 0.051926 
1805 1 0.00543536 0.0210474 0.0220873 0.0309901 
2599 1 0.0129709 0.0204146 -0.0145566 0.0282293 
327 1 -0.0166886 0.00980267 -0.00775802 0.0208516 
137 1 0.0187341 -0.00473647 0.0291907 0.0350071 
2334 1 -0.00324901 0.0122659 0.00168975 0.012801 
3698 2 0.00407141 -0.0216414 0.00886891 0.0237399 
555 1 0.0124699 -0.00814173 -0.00528622 0.0158028 
4178 2 0.017159 0.00265815 0.0053238 0.0181615 
290 1 -0.00246856 0.018059 -0.0112852 0.0214377 
284 1 -0.0182179 -0.01097 -0.0201876 0.0293218 
3543 2 0.0167905 0.00241234 0.00155029 0.0170336 
366 1 0.0054051 -0.0117259 -0.00769068 0.0150286 
55 1 -0.00445561 -0.000943986 0.00263594 0.00526229 
273 1 -0.00715152 -0.00158669 0.0020162 0.00759782 
3468 2 0.0127057 0.00138702 -0.000802926 0.0128063 
316 1 0.0131247 -0.0193663 0.0306607 0.0385667 
81 1 -0.025235 0.0157877 0.0182632 0.0349228 
322 1 0.0114546 0.0059899 -0.0145954 0.0194965 
239 1 -0.0114387 0.0058504 -0.00960071 0.0160389 
734 1 -0.0216631 -0.0233444 -0.00899066 0.033092 
384 1 0.021522 -0.00701907 -0.00138316 0.0226798 
3476 2 -0.010971 0.0181302 0.00551374 0.0218968 
311 1 0.0262193 -0.0169659 -0.0107148 0.0330166 
3471 2 -0.0177205 0.00617265 -0.00944313 0.0210069 
1938 1 -0.00832802 -0.00905955 -0.00831335 0.0148507 
139 1 0.0286747 -0.0104159 -0.0105698 0.032287 
727 1 -0.00967891 -0.00876809 0.00189495 0.0131967 
1885 1 0.00288111 0.0192313 -0.0248814 0.0315789 
2184 1 0.00330975 0.0529673 -0.0336905 0.0628613 
2494 1 -0.0231205 -0.0279366 -0.0126804 0.0384162 
2091 1 -0.0130204 -0.00905362 -0.00749163 0.0175392 
281 1 0.0206166 0.0063723 0.0171377 0.0275563 
863 1 -0.000595066 0.0288264 0.00779211 0.0298669 
176 1 -0.0271944 0.0124456 -0.0205964 0.0363131 
3710 2 0.000657426 0.018078 -0.00288879 0.0183192 
3572 2 0.00241887 -0.012951 0.0050593 0.014113 
4197 2 -0.0209279 0.00230386 0.00514196 0.0216732 
343 1 0.0059208 -0.0112207 -0.0270185 0.029849 
282 1 -0.000316802 0.000921178 0.00376487 0.00388885 
1038 1 -0.00119805 -0.0111438 -0.00789515 0.0137096 
408 1 0.0400283 0.0362579 -0.0102235 0.0549675 
412 1 0.0281297 -0.0149374 0.00120039 0.0318724 
820 1 0.0156647 -0.00142317 -0.0025786 0.0159392 
585 1 -0.00649779 -0.0103355 -0.0117959 0.0169761 
3609 2 0.0231522 0.000924568 -0.00144412 0.0232156 
719 1 -0.0209994 0.0146158 -0.00313015 0.0257758 
608 1 0.00476783 -0.0347334 -0.00775788 0.0359072 
106 1 0.00253401 0.0213943 0.00124678 0.0215799 
1047 1 -0.0322078 -0.00434933 0.00473206 0.0328429 
3573 2 -0.000738534 0.00445535 -0.0111395 0.0120202 
751 1 -0.0189114 -0.00105117 0.00573971 0.0197912 
259 1 0.0178431 -0.0239001 0.00645453 0.0305164 
245 1 -0.0204782 0.00363904 -0.0250901 0.0325901 
613 1 -0.0111356 0.00308601 0.039786 0.0414301 
4296 2 -0.00671168 0.00472107 0.00912488 0.0122719 
272 1 -0.0173795 -0.023521 0.000924432 0.0292599 
4239 2 0.00142839 -0.0237847 -0.0126879 0.0269951 
88 1 0.0122889 0.0267905 0.0101835 0.0311842 
4 1 0.0393521 0.00251279 -0.01355 0.0416954 
361 1 0.0118056 0.0265003 -0.0350742 0.0455175 
358 1 5.50801e-05 -0.00734747 0.0216774 0.0228888 
194 1 0.0023062 0.00745722 -0.01853 0.020107 
2373 1 -0.004638 -0.0204289 -0.00881272 0.022727 
1982 1 -0.0064802 -0.0094379 -0.0321287 0.0341075 
3953 2 -0.0127149 0.00749527 0.00218099 0.0149199 
414 1 0.000954262 0.00185435 -0.00746512 0.00775095 
3186 1 0.0138349 -0.0168536 0.0167134 0.0274733 
177 1 0.0210334 -0.00551487 0.0252497 0.0333221 
1962 1 -0.00873771 0.0108004 0.00888996 0.0164932 
706 1 0.0152758 -0.000348984 0.00366786 0.0157139 
1544 1 -0.00683143 0.000573004 -0.0086502 0.0110373 
4160 2 -0.00113477 0.00376449 -0.00374736 0.00543155 
19 1 -0.00204166 -0.0260353 -0.015317 0.0302757 
3624 2 0.00944884 -0.0159642 -0.0114099 0.021779 
115 1 0.0345973 -0.0171688 -0.00660782 0.0391843 
1102 1 -0.0259846 0.00891338 -0.0094385 0.0290471 
1492 1 0.0158387 0.00420514 0.0107302 0.0195879 
649 1 0.0200935 0.032592 -0.0163701 0.0416409 
113 1 -0.00687266 0.0179017 0.00113486 0.0192092 
1150 1 0.0175769 -0.00571205 0.00794908 0.0201187 
620 1 -0.039396 0.0195828 0.0136565 0.0460655 
739 1 -0.00335562 -0.00506478 0.00475525 0.00771522 
2412 1 -0.00106268 0.0314899 0.00611585 0.0320959 
3746 2 0.0206635 0.00291443 -0.0342968 0.0401465 
1225 1 0.014265 0.0228092 0.0216459 0.0345296 
241 1 0.00855318 0.0249512 -0.00488614 0.0268253 
83 1 0.00999185 0.0235586 -0.00668225 0.026448 
1006 1 0.000385325 0.00159695 -0.00274113 0.00319571 
4046 2 -0.0418205 0.00502532 -0.00892029 0.0430556 
96 1 0.0182486 -0.0220392 -0.00519746 0.0290818 
411 1 0.0170416 0.0123681 0.00583079 0.0218492 
2454 1 0.00440691 -0.00690764 -0.00962248 0.0126384 
404 1 0.00146943 0.00781921 0.0202029 0.0217131 
226 1 0.0245959 0.000199352 0.024825 0.0349468 
534 1 0.0104303 -0.00442132 0.0205594 0.023474 
3538 2 0.00985318 0.012095 0.0115389 0.0194041 
761 1 0.0189634 0.0154285 -0.000427483 0.0244506 
246 1 0.0264936 -0.0232799 0.0166746 0.0390116 
2229 1 0.0195292 -0.00475145 0.0122164 0.0235203 
146 1 -0.00112894 0.0252006 -0.00356749 0.0254769 
3608 2 0.0101748 -0.0201222 -0.014797 0.02697 
503 1 -0.0119507 -0.000135676 0.0134716 0.0180089 
505 1 0.0142062 -0.00190689 -0.0166345 0.0219581 
1430 1 -0.0158311 -0.0123238 0.00657837 0.0211134 
97 1 -0.000673287 0.0142619 -0.00573793 0.0153876 
1723 1 0.00940952 -0.0169812 -0.0248744 0.0315537 
3561 2 -0.00733452 0.0162208 0.00345427 0.018134 
20 1 -0.00973371 -0.0222795 -0.0166756 0.0294821 
263 1 -0.0235824 0.0155173 0.018589 0.0338004 
817 1 0.0206941 -0.0131862 -0.00597232 0.0252545 
1034 1 0.00424888 0.00685663 0.00574233 0.00990155 
353 1 0.0125001 -0.0115536 0.000701111 0.0170361 
1260 1 0.0088288 0.0101009 -0.010533 0.0170564 
998 1 0.00692017 0.00726167 -0.011895 0.0155599 
1932 1 0.0205453 -0.0201301 0.00407296 0.0290502 
36 1 0.0111734 -0.017504 0.0194468 0.0284502 
38 1 -0.02135 -0.0162629 -0.0146508 0.0305769 
3130 1 0.00107809 0.0119604 -0.0102922 0.0158159 
1973 1 0.0231463 -0.0259061 0.0367273 0.0505546 
307 1 -0.010841 -0.00697747 -0.0231347 0.0264845 
2714 1 0.0360041 0.0129892 0.00647865 0.03882 
28 1 -0.00811501 -0.0172454 -0.0208613 0.0282569 
1937 1 -0.00266389 -0.00322201 -0.0114375 0.0121776 
562 1 -0.0182067 -0.0198667 -0.0025968 0.0270724 
3011 1 -0.0255757 -0.0141241 0.00965505 0.0307705 
410 1 0.0305932 -0.00313053 0.00796852 0.0317686 
693 1 0.0178865 0.0312202 -0.00867317 0.0370116 
367 1 -0.0139865 0.000639088 -0.00549994 0.0150426 
318 1 0.0278155 0.00936861 0.00279234 0.0294833 
735 1 0.015302 -0.0159735 0.0192636 0.0293324 
600 1 -0.0150632 0.0129215 0.0237847 0.030977 
3590 2 -0.0188922 0.00611944 -0.0358543 0.0409865 
3636 2 0.0160987 -0.0399642 0.00710931 0.0436675 
26 1 -0.00682164 0.0222742 0.00974099 0.02525 
1199 1 0.0158384 -0.00876143 -0.00321346 0.0183833 
614 1 0.00875427 -0.0150484 -0.00584191 0.0183636 
459 1 0.023488 0.00617324 -0.00795464 0.0255552 
3645 2 0.0152507 0.0233603 0.00662928 0.0286746 
574 1 -0.000278581 0.018647 -0.0241609 0.0305211 
780 1 0.0226176 -0.00512022 -0.00484069 0.0236897 
161 1 0.0102906 0.0298647 -0.0165665 0.0356685 
309 1 0.0254776 0.00969805 0.00304048 0.02743 
365 1 -0.0115451 -0.0013186 -0.00273535 0.0119377 
191 1 -0.00955089 0.0278261 -0.00408862 0.0297023 
1766 1 0.0200673 0.037249 -0.011826 0.0439322 
2775 1 -0.0143665 -0.0220047 -0.00853342 0.0276301 
1030 1 -0.00972495 -0.00444725 0.0202297 0.0228821 
1505 1 0.00618825 0.0292752 0.0233168 0.0379342 
3872 2 -0.00402187 0.0134562 -0.00424194 0.014671 
580 1 -0.00893116 -0.0191009 -0.0152505 0.0260228 
2054 1 -0.0390828 -0.0129249 -0.01603 0.0441756 
2064 1 0.00921316 0.00149731 -0.0143861 0.0171489 
529 1 0.00837389 0.00330695 -0.0169877 0.019226 
402 1 0.00701526 0.0168532 -0.0166151 0.0246841 
124 1 0.00716435 -0.0133286 -0.00399776 0.0156512 
744 1 0.000733858 0.0237108 -0.00440766 0.0241282 
185 1 0.0264207 -0.0147541 0.0358664 0.0469269 
315 1 0.00317451 -0.0156955 -0.0193964 0.0251524 
655 1 -0.016626 0.0132675 0.00526511 0.0219128 
765 1 -0.00951829 0.0367564 0.0124651 0.0399626 
140 1 0.00690394 0.0146604 0.0182453 0.0244025 
59 1 -0.00891377 -0.010459 0.00664548 0.0152646 
54 1 0.0100483 0.011796 0.0429911 0.0456984 
3506 2 0.0199756 0.00499456 -0.00276339 0.0207752 
666 1 -0.015107 -0.0131799 0.0131323 0.0239664 
43 1 0.00229888 0.0480069 0.00848465 0.0488051 
334 1 0.00969456 0.0169268 0.0094792 0.0216877 
267 1 0.0128394 0.0127109 0.0108267 0.0210626 
99 1 0.0282024 -0.0256023 0.0307409 0.0489475 
1189 1 -0.0207422 -0.0198699 -0.0296411 0.0412752 
201 1 0.0116183 -0.00529949 -0.0144115 0.0192552 
380 1 0.0178814 0.0191597 -0.025235 0.036382 
1777 1 0.0146208 -0.00724339 -0.0167297 0.0233691 
2597 1 0.0372822 0.0037569 -0.0244933 0.0447661 
2484 1 0.0412532 0.0138251 -0.0185541 0.0472992 
308 1 -0.0210887 -0.016514 -0.0124897 0.029554 
3918 2 -0.00659411 0.0155434 -0.0152121 0.0227263 
89 1 -0.0109451 -0.027445 -0.0148229 0.0330567 
300 1 -0.00106451 0.0147124 -0.00501082 0.0155787 
3582 2 0.00556129 0.0446118 -0.00660079 0.0454391 
712 1 -0.0169055 0.00781196 0.0182919 0.0261039 
3836 2 0.000598623 0.00397801 -0.0109442 0.0116601 
268 1 0.0152473 0.0114943 -0.00939415 0.0212803 
788 1 0.0129584 -0.0110722 -0.0197988 0.0261248 
4091 2 -0.0100666 0.0161426 0.0315234 0.0368191 
371 1 0.0186293 -0.00750372 -0.014517 0.0247811 
3505 2 0.00071813 -0.0098962 0.0242632 0.0262136 
266 1 -0.00847528 -0.00142094 -0.00136794 0.00870177 
3571 2 -0.0333634 0.0385248 -0.00932989 0.0518105 
637 1 -0.0131555 0.00260742 0.00586739 0.0146388 
157 1 0.0327622 0.013373 0.00120729 0.035407 
257 1 0.00174618 0.0178298 0.0296828 0.0346702 
571 1 -0.0208121 -0.00697505 -0.0212579 0.0305564 
665 1 -0.00894813 0.0157256 0.0211324 0.0278198 
448 1 -0.0253705 0.000644598 0.00270769 0.0255227 
827 1 0.0357121 0.0151274 0.00049058 0.038787 
3475 2 -0.0114768 -0.00811146 0.00732089 0.0158464 
73 1 -0.00354379 0.0278836 -0.0101007 0.0298676 
373 1 0.000927622 -0.0201958 0.0091303 0.0221832 
247 1 -0.00944904 0.00249767 0.00472955 0.0108578 
107 1 0.00834314 0.00229485 0.0123561 0.0150846 
675 1 0.0108503 0.0116644 -0.02973 0.0337292 
434 1 0.00130551 0.0158002 0.00959165 0.0185297 
159 1 0.00982572 -0.00326276 -0.00408052 0.0111284 
32 1 -0.00379407 0.0117479 -0.00800014 0.0147109 
3579 2 -0.00981068 -0.0276584 0.000767016 0.0293568 
394 1 -0.0142708 -0.00700219 0.00454488 0.0165331 
260 1 -0.0212549 -0.00545464 0.00630133 0.0228305 
3972 2 -0.00949683 0.001214 0.0329865 0.0343479 
1801 1 -0.022805 -0.00501957 0.0171014 0.0289435 
2122 1 -0.00238788 0.0172087 0.00890278 0.0195218 
1966 1 0.0139835 0.015311 -0.0143012 0.0251891 
291 1 0.000939404 -0.00716371 0.00900691 0.0115467 
2047 1 0.012848 -0.00461093 0.00474683 0.0144521 
1899 1 -0.0172971 0.0544168 0.00698762 0.0575257 
622 1 -0.0255607 -0.00193179 0.00529036 0.0261738 
1993 1 -9.76167e-05 0.0133714 0.00233027 0.0135733 
62 1 0.021428 0.0141351 -0.0018753 0.0257386 
2187 1 0.0202388 0.00298047 -0.0241927 0.0316825 
4318 2 0.00900151 -0.0113841 -0.00292456 0.0148046 
44 1 -0.021436 -0.0236968 0.00560134 0.032441 
824 1 -0.0218014 -0.00262883 -0.00362727 0.0222569 
1282 1 -0.019649 -0.0118474 0.0235448 0.0328756 
3626 2 -0.0020168 0.00583904 -0.000130158 0.00617891 
819 1 0.0174712 -0.00829624 -0.0080087 0.0209335 
773 1 -0.00829835 -0.0170599 0.00354141 0.0192988 
270 1 0.0188581 -0.0198748 0.0256063 0.0375009 
14 1 -0.0149933 0.0209389 -0.014093 0.0293573 
3540 2 0.0112561 -0.0220394 0.000915067 0.0247643 
997 1 0.0148868 0.0177649 0.0190851 0.0300241 
4275 2 -0.00302985 -0.0244003 -0.0132144 0.0279137 
164 1 0.00565209 0.015254 0.0412974 0.0443859 
234 1 -0.0217242 -0.0111763 0.00666622 0.0253237 
1125 1 -0.00182136 0.0258387 -0.0135733 0.0292436 
3985 2 -0.0228498 -0.00568615 0.0159836 0.0284591 
328 1 0.000897448 -0.00740999 -0.0122417 0.0143378 
3474 2 0.001561 0.0104197 -0.00149347 0.0106413 
543 1 -0.00297279 -0.0168472 0.0051903 0.0178775 
293 1 0.00636443 -0.00552334 -0.00202507 0.00866685 
3458 2 0.0141937 -0.021545 0.0071233 0.0267655 
390 1 -0.00996017 -0.0203559 0.0211264 0.0309822 
3706 2 0.0424312 -0.00191711 -0.0246299 0.049099 
2169 1 0.00971746 -0.00504398 0.0121137 0.0163283 
1786 1 -0.0204209 0.014756 -0.0180024 0.0309651 
1478 1 0.011033 -0.00706966 0.0187425 0.0228689 
87 1 -0.0167865 -0.0140777 0.00292311 0.0221023 
4090 2 -0.00369943 -0.022114 0.028709 0.0364269 
142 1 -0.00742873 0.00609008 0.0199198 0.022115 
1650 1 -0.0178179 -0.00486804 -0.0212071 0.0281233 
153 1 -0.000476585 0.00831394 0.00800184 0.0115489 
374 1 0.00112494 -0.0165896 0.0157372 0.0228941 
602 1 -0.00918353 9.89141e-05 0.00388204 0.00997082 
1277 1 -0.0164731 -0.00607368 0.0101577 0.0202837 
76 1 -0.0263834 -0.00625764 -0.00016652 0.0271158 
1370 1 0.00460051 -0.0158175 0.0250942 0.030018 
221 1 0.0142694 -0.0155012 -0.0230923 0.0312595 
604 1 -0.000134599 0.0230367 0.0150947 0.0275419 
1161 1 -0.0128588 0.00199368 0.0311748 0.0337815 
1718 1 -0.0245932 0.000611536 -0.00831802 0.025969 
178 1 0.0220793 -0.0231603 -0.00170945 0.032044 
295 1 -0.0131804 -0.0147561 -0.000133275 0.0197859 
1472 1 -0.0205871 -0.0239104 0.0117891 0.0336827 
4159 2 -0.00551791 -0.0170408 -0.00950283 0.0202766 
3467 2 0.023706 0.000135249 0.0065145 0.0245851 
3531 2 0.0232732 0.00341656 0.0363977 0.0433371 
2720 1 -0.0429519 0.00710108 0.00140732 0.0435576 
1851 1 0.0116955 0.0201434 0.00106068 0.0233167 
732 1 -0.0211302 -0.017737 -0.000197896 0.0275885 
4009 2 0.0174971 0.0139349 -0.0115831 0.0251893 
3878 2 0.00108792 0.00235162 -0.00608591 0.00661453 
3185 1 -0.00208481 -0.000826851 -0.00459522 0.00511334 
110 1 -0.0306698 0.00213833 0.00368227 0.0309639 
2963 1 -0.00101744 0.0154459 0.003699 0.0159152 
2608 1 -0.00689519 -0.00163454 0.00743261 0.0102693 
3301 1 0.00664328 -0.00897639 0.000843805 0.0111991 
3759 2 -0.0045378 0.0189013 -0.00254969 0.0196049 
4171 2 0.012786 -0.00213481 0.00615848 0.0143515 
2118 1 -0.0115408 -0.00566533 -0.0310576 0.0336133 
1742 1 0.0141962 -0.0268825 -0.00137572 0.0304318 
642 1 0.0131199 -0.0219743 0.0199883 0.0324736 
3366 1 -0.0242545 0.00765499 0.0121582 0.0281905 
144 1 0.0307657 0.00349016 0.00192006 0.0310225 
681 1 0.0159733 -0.0122256 -0.00893516 0.0220102 
1666 1 0.0262949 -0.00793149 -0.0152864 0.0314325 
183 1 -0.0227555 -0.00696918 -0.00245036 0.0239246 
694 1 -0.0225797 0.00787583 0.0244085 0.0341709 
444 1 -0.00539031 0.0289706 -0.0156629 0.0333718 
869 1 -7.64079e-05 -0.0299913 0.0160547 0.0340182 
920 1 -0.00403255 -0.0167571 -0.00771132 0.0188819 
53 1 0.0115016 0.00104271 0.00640982 0.0132083 
1450 1 -0.0409358 -0.0231954 0.0117799 0.0485029 
1579 1 0.031029 -0.0159521 0.0176912 0.0391184 
51 1 0.0135959 0.00120068 0.0137437 0.0193696 
4187 2 -0.0170476 -0.00517944 -0.0494989 0.0526079 
1694 1 0.0116114 -0.0210043 0.00185598 0.0240717 
1590 1 -0.00028788 0.0206519 0.00300803 0.0208718 
2005 1 -0.00797885 0.00593213 0.0536212 0.0545351 
736 1 -0.00358339 -0.0119323 -0.0249754 0.0279104 
363 1 0.00312193 -0.00208994 0.0112809 0.01189 
230 1 -0.000945648 -0.00374231 0.0417922 0.0419701 
2538 1 -0.00837928 0.00752371 -0.0188791 0.0219827 
357 1 -0.0342315 -0.000598914 0.00606636 0.03477 
3849 2 0.0248657 0.00656044 0.0249087 0.0358021 
4102 2 0.0257936 -0.0268634 0.0102391 0.0386237 
1032 1 0.0171876 -0.0052852 -0.00129668 0.0180285 
78 1 0.000502743 -0.0030496 0.00356123 0.00471542 
564 1 0.0102284 -0.00565354 0.0314345 0.0335367 
797 1 0.0337366 -0.00530149 -0.0108808 0.0358421 
1476 1 0.0309258 -0.00885473 -0.00944585 0.0335266 
872 1 -0.0164433 -0.0163712 0.00252489 0.0233404 
475 1 -0.0125872 -0.00752336 -0.00289831 0.0149479 
4119 2 0.00456195 -0.00661353 -0.0020111 0.00828219 
576 1 -0.0278392 0.0105769 0.0214249 0.0366867 