ITEM: TIMESTEP
26
ITEM: NUMBER OF ATOMS
4320
ITEM: BOX BOUNDS pp pp pp
0.0000000000000000e+00 1.9309999999999999e+01
0.0000000000000000e+00 1.9309999999999999e+01
0.0000000000000000e+00 9.6549999999999994e+00
ITEM: ATOMS id type c_displacement[1] c_displacement[2] c_displacement[3] c_displacement[4] 
4012 2 0.00115528 -0.0410566 0.000689305 0.0410786 
2361 1 -0.0102957 -5.16144e-05 -0.0300492 0.0317641 
79 1 -0.0420329 -0.0555278 0.0280615 0.0750836 
781 1 0.0497705 -0.00584993 0.00774814 0.0507086 
461 1 -0.0113658 -0.0223171 -0.0170353 0.0302892 
3704 2 -0.0131709 -0.0375196 0.0267301 0.0479134 
629 1 -0.0381985 0.00952062 0.0287893 0.0487708 
1571 1 0.00273183 0.0112204 -0.0252904 0.0278022 
58 1 0.080069 0.00507401 0.118232 0.142884 
2372 1 -0.0459151 -0.0427714 -0.0203594 0.0659704 
372 1 -0.0066378 0.0110176 -0.0201021 0.0238651 
3504 2 0.00372209 -0.0598269 0.0247179 0.0648389 
4130 2 -0.0162331 -0.0188724 -0.0299507 0.0389452 
1262 1 0.0229057 0.0679903 -0.0610688 0.0942165 
907 1 -0.0548924 -0.041379 -0.0973584 0.119181 
3659 2 0.0385139 0.115906 -0.0640017 0.13789 
1298 1 0.0619531 0.0382942 -0.0565504 0.0922094 
1716 1 0.00139649 0.0811153 -0.0365943 0.0889988 
1182 1 -0.00654969 0.00490336 0.0163282 0.0182634 
683 1 0.000503887 -0.01928 0.0368 0.0415477 
1958 1 0.0357204 -0.0618083 0.0464041 0.0851443 
1554 1 0.00111923 -0.0554111 -0.0334603 0.0647398 
1037 1 -0.0324905 -0.129196 0.0153394 0.134099 
749 1 -0.0750581 -0.0233983 0.03172 0.0847783 
3628 2 0.0548596 0.0397145 0.0342998 0.0759164 
946 1 -0.0275381 0.00989615 -0.0366505 0.0468992 
2232 1 0.033083 0.00728626 -0.0589343 0.0679767 
7 1 0.0180742 -0.00497909 -0.00193014 0.0188466 
501 1 0.0255502 0.0886328 -0.0675038 0.114304 
179 1 -0.0153761 -0.0160918 -0.0807491 0.0837603 
714 1 -0.010374 -0.0298194 0.0914113 0.0967101 
4166 2 0.00633109 -0.0349464 -0.0481184 0.0598056 
276 1 -0.0249917 0.0392068 0.0534915 0.0708738 
767 1 -0.0502817 -0.0115223 0.0603025 0.0793562 
3890 2 -0.101669 -0.0250427 -0.0600645 0.120713 
6 1 -0.00833966 0.0602072 0.00670939 0.0611512 
2086 1 -0.0110812 -0.00300225 0.0367019 0.0384557 
224 1 -0.00536234 -0.0116631 -0.000386304 0.0128426 
3660 2 0.0352117 0.0367204 0.0104867 0.0519444 
596 1 -0.0452612 -0.00895217 -0.0254602 0.0526967 
1214 1 -0.00655618 -0.0363454 -0.0213794 0.0426738 
3686 2 0.0333463 0.0254199 0.00516059 0.0422466 
427 1 -0.0366041 0.0578741 0.0495848 0.0845454 
350 1 0.00425986 0.0447037 0.0188317 0.048695 
85 1 -0.025705 -0.0123828 -0.0123568 0.0310929 
598 1 -0.0334208 -0.00933093 0.0799061 0.0871149 
3554 2 0.000467329 -0.0200551 -0.0188087 0.0274989 
29 1 -0.013074 0.0495621 0.0334651 0.0612147 
464 1 -0.0348071 0.0239598 -0.0197023 0.0466238 
3619 2 -0.0162496 0.0235826 0.0535548 0.0607314 
12 1 0.0618904 -0.132855 0.0551016 0.156579 
364 1 -0.0674964 0.0356183 -0.0353394 0.084103 
1849 1 -0.0886799 -0.0295184 0.0406559 0.101923 
3663 2 -0.069817 0.0315922 -0.0650763 0.100536 
3517 2 0.0325612 0.0145313 0.0480517 0.0598361 
25 1 0.0753277 -0.0321375 -0.0126979 0.0828753 
4163 2 -0.021101 0.0219178 -0.01197 0.0326943 
399 1 -0.00290309 0.00604212 -0.0112205 0.0130704 
4265 2 -0.0194822 0.0474841 0.0099643 0.0522837 
527 1 -0.0202422 -0.00399202 -0.0225668 0.0305769 
200 1 0.0524437 0.013233 0.0181518 0.0570521 
1951 1 0.0709711 0.0441553 0.0173118 0.0853598 
644 1 0.029952 -0.0311326 0.0478376 0.0644577 
193 1 -0.00626155 0.0652922 -0.0218521 0.069136 
550 1 -0.00354223 -0.0256567 -0.00958877 0.0276181 
69 1 -0.0106859 -0.041558 0.0307753 0.0528051 
842 1 -0.037063 0.0296639 -0.0770517 0.0905018 
578 1 -0.0468533 0.030539 -0.0107438 0.0569499 
172 1 0.00489101 -0.0723518 0.0176709 0.0746389 
381 1 -0.0127219 0.0674203 -0.0612838 0.0919949 
3524 2 0.0510011 -0.066409 0.0689639 0.108477 
688 1 -0.0276915 0.0550848 0.00152232 0.0616723 
3651 2 -0.00699759 0.0428606 0.00276883 0.0435163 
2367 1 0.0182181 0.0196973 -0.00770893 0.0279162 
1244 1 -0.0373997 0.0407469 0.0425176 0.0697624 
796 1 -0.0802743 0.054007 -0.0149002 0.0978914 
691 1 0.0436649 -0.00738033 0.0124546 0.0460022 
421 1 0.00629261 0.0130116 0.0886703 0.0898405 
597 1 -0.0464283 0.0458452 -0.0173553 0.0675173 
3617 2 0.00184196 0.0154626 -0.0443735 0.0470265 
120 1 0.0384169 0.0202406 0.0104847 0.0446707 
769 1 -0.031365 0.0260489 0.0328558 0.0523623 
2142 1 0.00313363 0.0095537 -0.00726824 0.0124065 
3611 2 0.0783325 0.0488789 0.0697122 0.115693 
1915 1 -0.026912 0.0282178 -0.00432316 0.0392325 
2140 1 -0.0218308 0.00770057 0.0614066 0.0656251 
3828 2 0.0703075 0.0114733 0.0240435 0.0751856 
3204 1 0.00485624 0.061868 0.0216056 0.0657118 
175 1 0.050887 0.0383237 -0.0319465 0.0712655 
2011 1 0.0427797 0.0249397 -0.0238998 0.0549845 
75 1 -0.0178528 0.041322 0.0318582 0.0551468 
547 1 -0.0424407 0.0143771 -0.0271662 0.0524014 
4316 2 -0.0105733 0.0192798 0.00164039 0.0220498 
559 1 0.0156024 0.0198393 -0.034436 0.0426951 
717 1 0.033749 0.0174557 -0.0176221 0.0418836 
242 1 0.00782572 -0.0115937 0.0422577 0.0445125 
3510 2 -0.0252481 0.0127952 0.0243913 0.0373647 
130 1 0.0270539 -0.0365619 0.060961 0.0760587 
143 1 -0.00929021 0.0197152 -0.0323129 0.0389759 
202 1 -0.0764346 -0.0144924 -0.0461783 0.0904694 
182 1 -0.0805095 0.0419498 -0.00510403 0.0909264 
84 1 0.0207015 -0.0530429 -0.0444507 0.0722354 
3633 2 0.00957493 -0.0474708 0.044078 0.065483 
35 1 -0.0883008 -0.049698 0.0607286 0.118131 
3612 2 0.0119868 0.0410427 -0.0803003 0.0909743 
40 1 0.0803014 0.0550554 0.0408983 0.105603 
4005 2 0.038099 -0.0532247 0.0131151 0.0667563 
718 1 0.00114452 0.0382616 -0.0229413 0.0446269 
134 1 0.00155409 -0.0407105 0.0252259 0.0479177 
511 1 -0.020598 -0.0673026 0.0714143 0.100269 
757 1 0.0444779 0.0983539 -0.00505881 0.108062 
3555 2 -0.0484017 0.0100537 0.0110614 0.0506572 
3481 2 -0.0178302 0.0209377 -0.0146966 0.0311816 
135 1 0.0107533 -0.0413706 0.00549417 0.0430969 
369 1 0.025753 -0.0257611 0.0755723 0.0838929 
2148 1 -0.0333963 -0.0170586 -0.0210342 0.042997 
3462 2 0.0330525 -0.0528194 -0.0856185 0.105891 
1914 1 -0.0244681 -0.00506598 -0.000844797 0.0250013 
3661 2 0.0430435 -0.0532163 0.0171158 0.0705526 
1871 1 0.0184286 0.0137727 -0.0185781 0.029571 
320 1 -0.0288625 -0.0200428 -0.0274795 0.044608 
582 1 -0.0141891 -0.0653805 0.0101373 0.0676661 
766 1 -0.0288682 0.0113543 -0.00645348 0.031685 
3552 2 -0.00532339 -0.0378877 0.0134831 0.0405662 
2290 1 -0.0280793 0.0386764 0.0418167 0.0635055 
1794 1 0.00973154 -0.0140001 0.0182363 0.0249654 
753 1 -0.0653079 0.0234361 -0.00172313 0.069407 
396 1 -0.0105873 -0.0266187 0.05426 0.0613579 
496 1 -0.00422197 0.0427399 -0.0482141 0.0645688 
480 1 -0.0258601 -0.0404029 0.0465952 0.0668749 
253 1 0.0356432 0.00190726 -0.00696326 0.0363671 
4033 2 0.000873999 0.016549 -0.0225941 0.0280201 
347 1 -0.0436269 0.00697851 0.0412387 0.0604371 
586 1 -0.0364876 0.0219447 -0.0758682 0.0869994 
3671 2 0.0818091 0.00660461 -0.0738512 0.11041 
37 1 -0.00959412 -0.0350769 0.0124319 0.0384316 
782 1 0.0175328 -0.0485102 -0.00524267 0.0518471 
481 1 0.026932 -0.00467689 -0.0456167 0.0531798 
392 1 -0.0402219 0.0224025 -0.0716824 0.0851941 
333 1 0.0193614 -0.0338877 -0.0206224 0.044142 
342 1 0.00693707 0.016245 -0.0297502 0.0345991 
1179 1 -0.0103261 0.0062965 -0.0336671 0.0357736 
517 1 -0.0144153 -0.0286503 -0.0280211 0.042589 
1824 1 0.0416632 -0.0277942 0.0837008 0.0975405 
34 1 0.000245988 0.0193424 0.030868 0.0364283 
398 1 0.0139502 -0.0124007 -0.0240931 0.0304772 
170 1 -0.0482888 -0.0355222 -0.0305585 0.0672864 
235 1 0.00786346 -0.0919222 0.0129375 0.0931607 
3852 2 -0.0116283 -0.0489532 -0.00688908 0.0507848 
816 1 0.0294748 0.000299861 -0.00116128 0.0294992 
3931 2 -0.0546532 -0.0661775 0.0805983 0.117739 
274 1 -0.0274041 -0.0307539 -0.016379 0.0443289 
30 1 0.0278276 0.00318275 -0.0173284 0.032936 
2066 1 0.0568504 -0.0390708 0.0650966 0.0948476 
1082 1 0.0224623 0.00371081 0.0232296 0.0325259 
1372 1 0.00334255 -0.0190912 0.0568964 0.0601069 
1265 1 0.0408803 -0.00348918 -0.0577872 0.0708713 
601 1 0.0374511 0.0343323 0.0444172 0.0674847 
540 1 0.01878 0.0363921 0.0328011 0.0524689 
589 1 -0.0231215 0.0776122 0.0280221 0.0856942 
958 1 0.0358215 0.010624 -0.033373 0.050098 
504 1 -0.0585138 0.02717 6.96284e-05 0.0645142 
1349 1 -0.00602536 0.0459953 -0.00596012 0.0467696 
9 1 -0.000896438 -0.065076 0.0269376 0.0704366 
149 1 0.0148547 0.042634 0.0196178 0.0492257 
163 1 0.0248908 -0.0143298 -0.024432 0.037707 
4247 2 0.00926187 -0.0258227 -0.0460039 0.0535626 
1584 1 0.0988017 -0.0141202 -0.0867291 0.132224 
3570 2 -0.0262172 -0.038782 -0.000955762 0.046822 
237 1 0.0140608 0.0274157 -0.00123527 0.0308359 
490 1 -0.0156942 -0.0332757 0.0221904 0.0429651 
50 1 -0.0340799 -0.0708422 0.0324353 0.0850418 
152 1 0.0129378 0.0134369 0.00934029 0.020861 
3652 2 0.0112813 -0.0123007 -0.00212764 0.0168257 
3823 2 -0.00742441 0.049321 -0.0546743 0.0740065 
902 1 0.0232458 0.0484156 -0.0169006 0.0563033 
3574 2 -0.0182034 0.033319 -0.0412648 0.0560741 
770 1 -0.00445332 -0.0440362 -0.00931961 0.0452314 
154 1 0.00755527 -0.00412404 -0.0252543 0.0266809 
116 1 0.057686 -0.0463464 0.0147412 0.0754517 
710 1 -0.0545746 -0.0894056 -0.014747 0.105779 
1956 1 -0.00825666 0.042967 -0.0690095 0.0817108 
1810 1 -0.0791729 -0.0249114 0.0672526 0.106826 
2072 1 -0.0181103 -0.0205395 -0.0305969 0.0410612 
1649 1 -0.000487007 -0.00646499 -0.022696 0.0236039 
186 1 -0.0224444 -0.0342188 0.0667796 0.0783211 
1063 1 -0.0186885 0.0229135 -0.0998054 0.104093 
432 1 -0.0555711 0.0522203 -0.0625598 0.0986349 
2495 1 -0.0677997 -0.0725675 0.0537595 0.112929 
3896 2 3.62736e-05 -0.00934814 -0.0243733 0.0261046 
1071 1 -0.0216277 -0.0285765 -0.0373773 0.0517826 
913 1 0.0439581 -0.0614523 0.0290041 0.0809316 
1068 1 0.0556538 0.0225735 0.00574315 0.0603316 
265 1 -0.0401329 0.0203357 -0.00882141 0.0458477 
1287 1 0.00164744 0.0774175 -0.00596349 0.0776643 
3799 2 0.0162392 -0.0264509 -0.0535617 0.0619049 
554 1 0.0233106 -0.0154981 -0.0583562 0.0647227 
1414 1 -0.021057 0.0326087 -0.0629077 0.0739196 
213 1 0.00404247 -0.0349177 -0.00194589 0.0352047 
341 1 -0.0409308 -0.0250433 -0.027157 0.0551362 
3682 2 -0.037268 0.00566352 -0.0397364 0.0547719 
754 1 -0.0309638 0.0893544 -0.00942928 0.0950362 
112 1 -0.0417401 0.0301182 0.00498654 0.0517127 
1041 1 -0.0233694 -0.0800764 0.0112965 0.0841782 
119 1 -0.00363828 -0.0247293 0.0680382 0.0724843 
415 1 0.0199395 0.0359005 -0.027403 0.0493695 
995 1 -0.0198356 0.0309036 0.0152888 0.0397772 
4128 2 -0.032278 -0.0337291 0.0805346 0.0930878 
8 1 0.0555519 0.0481774 -0.00497769 0.0737011 
94 1 -0.00243188 -0.0442462 0.0115434 0.0457918 
48 1 0.00266002 0.0123983 -0.000582309 0.0126938 
3998 2 0.0191892 0.0360236 0.0208739 0.0458437 
3866 2 0.0251746 0.0170209 -0.00848021 0.0315497 
2206 1 0.0187905 -0.0110439 -0.00991167 0.0239435 
3490 2 -0.0483925 -0.0183335 -0.0143289 0.053696 
3072 1 0.00767893 -0.0294328 0.057416 0.0649758 
3002 1 0.0659342 -0.00271786 0.0263399 0.0710527 
92 1 0.0019384 0.0849354 0.0557228 0.101601 
335 1 -0.0375024 0.0520893 -0.041853 0.076625 
4034 2 -0.0914983 -0.080377 0.0286204 0.125106 
1186 1 0.0167257 0.00895108 0.00785842 0.0205336 
1114 1 0.069486 0.0313708 0.0209902 0.0790761 
1821 1 -0.0173946 -0.0356476 -0.0387242 0.0554337 
1922 1 -0.00574138 -0.0633379 0.000278763 0.0635982 
451 1 -0.0516965 -0.0382424 -0.00691676 0.0646749 
3960 2 0.00411649 -0.020279 0.00895047 0.0225454 
100 1 -0.0217301 0.0349024 -0.0343844 0.0535972 
1180 1 -0.0130629 -0.0404281 -0.0440624 0.0612092 
165 1 0.0598062 -0.002735 -0.012559 0.0611719 
388 1 -0.0505569 -0.0478897 -0.0255079 0.0741625 
3742 2 0.0613012 -0.0278103 0.0336611 0.0752617 
323 1 -0.0549173 0.0698044 -0.0699136 0.113033 
288 1 -0.031546 0.00721153 0.0141265 0.0353088 
3942 2 -0.0334424 0.0364698 0.0677973 0.083934 
66 1 0.0318308 0.0324375 0.0349775 0.0573482 
340 1 -0.0130007 -0.041629 0.00984053 0.0447083 
138 1 -0.0236655 0.0237323 0.0142812 0.0364311 
879 1 0.00944629 0.00404227 -0.0425062 0.0437304 
3808 2 0.0357175 -0.0178495 0.00580797 0.0403494 
834 1 -0.0267228 0.0110376 0.0182277 0.0341787 
18 1 -0.0352239 -0.0409718 -0.0674634 0.0864333 
3679 2 0.00549073 -0.0176049 -0.002602 0.018624 
52 1 0.0222656 0.000595311 -0.0103344 0.0245543 
407 1 -0.0542469 -0.00684845 -0.0580359 0.0797357 
360 1 0.0411473 -0.0126413 -0.0931171 0.102585 
2885 1 -0.0543666 -0.0489011 -0.0268731 0.0779052 
3526 2 -0.00124202 -0.100629 -0.0269652 0.104187 
310 1 -0.0557493 -0.0140624 0.0130971 0.0589684 
326 1 0.0433981 -0.0139207 0.0324505 0.0559484 
227 1 -0.00920271 -0.0104008 -0.00661418 0.0153822 
2068 1 -0.0434912 -0.05676 -0.0911955 0.115887 
456 1 0.0074148 -0.00131851 0.0197095 0.0210993 
279 1 -0.0253892 0.0156472 0.0471517 0.0557918 
305 1 -0.0715607 0.00823803 -0.0143376 0.0734463 
49 1 0.0105369 0.0365939 0.0286719 0.0476678 
3512 2 -0.00547797 -0.0608973 0.0383723 0.0721867 
11 1 -0.0255299 -0.0768858 -0.00325759 0.081079 
189 1 -0.00922076 0.0476167 0.0525343 0.0714998 
2271 1 -0.0433179 -0.0233249 -0.021043 0.0535099 
319 1 -0.0576064 -0.0290907 -0.0112238 0.0655037 
3566 2 -0.0176335 0.0362117 -0.0266847 0.0483146 
71 1 -0.0265504 0.0141747 -0.000449073 0.0301006 
1560 1 -0.0200925 -0.029956 0.0411647 0.0547321 
190 1 0.0079552 -0.0307129 0.0233609 0.0393992 
123 1 0.0427049 0.0163097 0.0361233 0.0582633 
27 1 -0.0314023 0.00204671 -0.0248208 0.0400795 
162 1 -0.0112242 -0.00445164 -0.0657451 0.0668448 
255 1 -0.056972 0.0137762 -0.0311447 0.0663746 
304 1 -0.0626472 0.00633122 -0.0301268 0.0698024 
321 1 -0.00082622 -0.0589493 0.0967644 0.11331 
682 1 -0.030266 0.0250674 0.000969941 0.0393108 
3469 2 0.0651016 0.0584249 -0.0624481 0.107478 
3539 2 0.0303366 0.0427779 0.0403655 0.0661788 
128 1 0.0509278 -0.02442 -0.019026 0.0595984 
3562 2 0.0753449 0.0264305 0.0317494 0.085927 
560 1 -0.0635016 -0.0389601 0.0163485 0.0762733 
212 1 0.00834177 0.0239474 0.00900685 0.0269108 
355 1 0.00898263 0.0470912 0.084902 0.097502 
156 1 0.0656877 0.0274312 0.046112 0.0848154 
3620 2 -0.0172848 -0.022201 0.00579056 0.0287259 
1823 1 0.0966725 -0.0816565 -0.0591981 0.139706 
1805 1 0.00458139 0.0583287 0.063764 0.0865394 
2599 1 -0.00619217 0.018364 -0.0114805 0.0225251 
327 1 -0.00749775 0.0136335 -0.00719298 0.0171414 
137 1 0.0438562 -0.0126988 0.0616415 0.0767092 
2334 1 -0.00858035 0.0338993 0.0182668 0.039452 
3698 2 0.0254105 -0.0584099 0.0180287 0.0662 
555 1 0.0135313 -0.0285798 -0.0284789 0.0425552 
4178 2 0.0314467 -0.0196879 0.023157 0.043735 
290 1 -0.0045535 0.0497081 -0.02022 0.0538561 
284 1 -0.0301841 -0.00866646 -0.0459546 0.0556598 
3543 2 0.0292519 -0.00294234 0.02259 0.0370762 
366 1 0.0206478 -0.0350797 0.00679338 0.0412683 
55 1 -0.0229571 0.0174096 -0.00309921 0.0289781 
273 1 -0.0119104 -0.0452496 0.00304721 0.0468899 
3468 2 0.0353086 0.0173327 0.0133564 0.0415393 
316 1 0.0488795 -0.0387797 0.0813634 0.102533 
81 1 -0.0536568 0.0277973 0.0305858 0.0677291 
322 1 0.0240584 -0.00126828 -0.0137575 0.0277432 
239 1 -0.0244702 0.0179605 -0.0371461 0.0479709 
734 1 -0.0491561 -0.0638332 -0.0257181 0.084572 
384 1 0.0659936 -0.0249541 -0.0246589 0.074739 
3476 2 -0.0130747 0.0612566 0.00601772 0.0629248 
311 1 0.0233776 -0.0305643 -0.0478686 0.0614174 
3471 2 -0.0210937 0.0125322 -0.00105446 0.0245583 
1938 1 -3.46472e-05 -0.0377115 -0.01298 0.0398829 
139 1 0.0801805 -0.0325068 -0.0133665 0.0875458 
727 1 0.0230034 -0.0167679 0.0430934 0.0516465 
1885 1 0.00491074 0.0361121 -0.0574796 0.0680596 
2184 1 0.044334 0.132881 -0.0831052 0.162878 
2494 1 -0.0847186 -0.0575868 -0.0786326 0.129138 
2091 1 -0.0348233 -0.0178906 -0.0309542 0.0499089 
281 1 0.0404325 0.0514963 0.0652375 0.0924261 
863 1 0.00710598 0.0790903 0.00860685 0.0798739 
176 1 -0.06614 0.0456664 -0.0319968 0.0865085 
3710 2 -0.00434299 0.045489 -0.0213673 0.0504448 
3572 2 0.00535883 -0.051883 -0.0185756 0.055368 
4197 2 -0.0537353 0.0190146 -0.00540527 0.057256 
343 1 0.00141217 -0.0278986 -0.072375 0.0775788 
282 1 -0.00351884 -0.0214522 0.00445936 0.0221915 
1038 1 -0.0138715 0.0265899 -0.00164509 0.0300358 
408 1 0.106522 0.0790463 -0.0246792 0.134924 
412 1 0.0896443 -0.039185 -0.00572347 0.0980017 
820 1 0.0576262 -0.000465688 0.00780906 0.0581548 
585 1 -0.0325222 -0.0321156 -0.0376151 0.0591946 
3609 2 0.0335954 -0.0300928 -0.000412777 0.0451043 
719 1 -0.0245235 0.0465272 -0.0140582 0.0544409 
608 1 0.00412883 -0.0291418 -0.0114478 0.0315807 
106 1 -0.0137535 0.0463732 0.0229712 0.0535473 
1047 1 -0.0774876 -0.0167919 -0.0043513 0.0794055 
3573 2 0.00135199 0.0152988 -0.036896 0.039965 
751 1 -0.027108 -0.0118647 -0.01924 0.0352958 
259 1 0.0418238 -0.0515985 0.0151944 0.0681359 
245 1 -0.0557453 -0.00412975 -0.049521 0.0746788 
613 1 -0.0273081 0.00196601 0.101622 0.105245 
4296 2 -0.0247066 0.0255736 0.018037 0.0398717 
272 1 -0.062469 -0.0633227 -0.00276143 0.0889931 
4239 2 -0.00619303 -0.0742591 -0.0341026 0.0819497 
88 1 0.0396321 0.0661477 0.0421217 0.0878662 
4 1 0.0943109 -0.00651117 -0.0414788 0.103235 
361 1 0.0390127 0.0695205 -0.0906226 0.120696 
358 1 -0.0145847 -0.0239569 -0.0058682 0.0286545 
194 1 -0.00432348 0.0219895 -0.0503129 0.0550783 
2373 1 -0.00344301 -0.0272987 -0.0437843 0.0517121 
1982 1 -0.00373881 -0.0222373 -0.028623 0.0364383 
3953 2 -0.0132213 0.0125365 0.02235 0.0288356 
414 1 0.00856079 0.00855659 -0.0233159 0.0262704 
3186 1 0.0455786 -0.0555994 0.0269085 0.0767644 
177 1 0.0470825 -0.0109556 0.0676553 0.0831506 
1962 1 -0.0299674 0.0317475 0.0339165 0.0552836 
706 1 0.0326662 -0.00741778 -0.0125907 0.0357859 
1544 1 -0.021704 -0.0254165 -0.00524323 0.0338312 
4160 2 -0.0137039 -0.00034049 -0.00689988 0.0153467 
19 1 -0.0180698 -0.0451005 -0.055608 0.0738432 
3624 2 0.010588 -0.0177576 -0.034734 0.0404214 
115 1 0.0907473 -0.0558582 -0.0047865 0.106668 
1102 1 -0.0629443 0.00777926 -0.0149964 0.065172 
1492 1 0.0275511 0.0178074 0.0350305 0.0479927 
649 1 0.0462877 0.0914848 -0.0428379 0.111118 
113 1 0.0160385 0.0148075 -0.00476409 0.0223426 
1150 1 0.0340916 -0.0146088 0.0322233 0.0491324 
620 1 -0.0727024 0.0318067 0.0200646 0.0818529 
739 1 -0.0498895 -0.0123713 0.0237959 0.0566415 
2412 1 0.00432371 0.057576 0.00524621 0.057976 
3746 2 0.0526262 0.0147574 -0.0931258 0.10798 
1225 1 0.0251078 0.0510263 0.0540306 0.0784436 
241 1 0.0472479 0.0444147 -0.0109732 0.0657681 
83 1 0.0273667 0.038638 -0.019094 0.051053 
1006 1 0.0121769 0.00436672 -0.00626856 0.014375 
4046 2 -0.0738899 -0.0205724 -0.036121 0.0847801 
96 1 0.0325953 -0.0608054 -0.0111451 0.0698854 
411 1 0.0359766 0.0399289 0.0417841 0.0680775 
2454 1 -0.0177995 -0.0016645 -0.0292324 0.0342655 
404 1 -0.0322651 0.0301054 0.0485038 0.0655743 
226 1 0.0521324 -0.0139373 0.0595611 0.0803714 
534 1 0.0290678 -0.00734725 0.071187 0.0772432 
3538 2 0.0195268 0.0284151 0.0077786 0.0353443 
761 1 0.0482463 0.00718612 0.0109575 0.0499942 
246 1 0.071818 -0.059881 0.0309015 0.0984807 
2229 1 0.0230021 -0.0426925 0.0249108 0.0545187 
146 1 -0.00443757 0.0319815 -0.0283952 0.0429977 
3608 2 0.0454661 -0.027848 -0.0110961 0.0544591 
503 1 -0.0304023 -0.00463059 0.0347529 0.0464059 
505 1 0.0520738 -0.0161554 -0.0144317 0.0563999 
1430 1 -0.0566266 -0.0250823 0.00279828 0.0619961 
97 1 -0.00321106 0.0300586 -0.0286212 0.0416293 
1723 1 0.0246237 -0.0182367 -0.0615094 0.0687191 
3561 2 0.0112432 0.0620099 -0.00710771 0.0634205 
20 1 -0.0382951 -0.0642049 -0.0257283 0.0790615 
263 1 -0.0502836 0.0668937 0.0225809 0.0866781 
817 1 0.0564686 -0.0364667 -0.000719107 0.0672238 
1034 1 0.0143987 0.012369 0.0128592 0.0229275 
353 1 0.0305466 -0.00950655 0.0420699 0.0528521 
1260 1 0.0374672 0.0520123 -0.0158082 0.0660225 
998 1 0.0118198 0.0244744 -0.0321596 0.0421063 
1932 1 0.0496468 -0.0716137 -0.00128911 0.0871492 
36 1 0.0469012 -0.0582947 0.035357 0.0827534 
38 1 -0.0373916 -0.0249818 -0.053838 0.070148 
3130 1 0.0071096 0.0310871 -0.0276328 0.0421963 
1973 1 0.0556304 -0.0506691 0.0929802 0.119614 
307 1 -0.0324831 -0.0453618 -0.0718814 0.0909933 
2714 1 0.0773761 0.0321628 0.0127287 0.0847557 
28 1 0.00498191 -0.00672884 -0.0104185 0.0133657 
1937 1 -0.00363292 0.00140293 -0.0277853 0.0280569 
562 1 -0.049167 -0.0642978 -0.000713206 0.0809451 
3011 1 -0.0571859 -0.0214958 0.0168905 0.0633844 
410 1 0.0684896 -0.0128266 0.019322 0.0723097 
693 1 0.0438644 0.0825395 0.0121565 0.0942583 
367 1 -0.0275599 0.00287451 -0.0088069 0.0290753 
318 1 0.0810083 0.0217559 -0.00806502 0.0842657 
735 1 0.0496936 -0.0353614 0.0237206 0.0654412 
600 1 -0.0292416 0.0500663 0.042475 0.0718737 
3590 2 -0.0589165 0.0271428 -0.0735212 0.0980473 
3636 2 0.0331106 -0.0875579 0.0259686 0.0971445 
26 1 -0.0358881 0.0505492 0.0350484 0.071215 
1199 1 0.039279 -0.0110809 -0.0261064 0.0484476 
614 1 -0.0181808 -0.0312912 -0.00815081 0.0370961 
459 1 0.0520428 -0.0272142 -0.0353117 0.0685273 
3645 2 0.0462695 0.0655342 0.0249953 0.084026 
574 1 0.0158174 0.0507607 -0.0324285 0.0622772 
780 1 0.0591096 -0.0108573 -0.00955529 0.0608533 
161 1 -0.00511157 0.0547677 -0.0398013 0.0678953 
309 1 0.0784079 0.0306641 0.0165802 0.0858078 
365 1 -0.00947752 -0.0597788 0.00213221 0.060563 
191 1 -0.0337988 0.0560928 0.00476928 0.0656621 
1766 1 0.0265643 0.0799565 -0.0390614 0.0928682 
2775 1 -0.0222807 -0.0661453 -0.0333523 0.0773563 
1030 1 -0.00272042 -0.0166887 0.0456806 0.0487097 
1505 1 0.0473792 0.0775175 0.0661292 0.112369 
3872 2 0.00313363 0.0328443 -0.00352675 0.0331814 
580 1 -0.0295283 -0.041451 -0.0263875 0.0573272 
2054 1 -0.0976817 -0.0403564 -0.0426162 0.113958 
2064 1 0.0335856 0.00253736 -0.0382336 0.0509533 
529 1 0.0086059 0.0298935 -0.0490706 0.0581 
402 1 0.0012629 0.03779 -0.0236493 0.0445979 
124 1 0.0151254 -0.0433415 0.00406653 0.0460847 
744 1 0.0339347 0.031973 -0.00487152 0.0468782 
185 1 0.0651473 -0.0371629 0.0846327 0.113084 
315 1 -0.0112659 -0.0388109 -0.0401914 0.0569961 
655 1 -0.0403471 0.0113976 0.0513095 0.0662606 
765 1 -0.0194011 0.0725383 0.023364 0.0786389 
140 1 0.0218036 0.0407968 0.00372521 0.0464074 
59 1 -0.0285281 -0.0249814 0.0171975 0.0416374 
54 1 0.0114244 0.0131586 0.0555813 0.058249 
3506 2 0.0241619 0.024848 -0.0199389 0.0399848 
666 1 -0.0433041 -0.0587412 0.0473004 0.0869661 
43 1 0.0200549 0.102311 0.037409 0.110767 
334 1 0.0165166 0.0335817 0.00232212 0.0374956 
267 1 0.0603134 0.0415095 0.0215973 0.076336 
99 1 0.0488189 -0.000601083 0.0705884 0.0858276 
1189 1 -0.0565329 -0.044226 -0.0766321 0.104997 
201 1 0.0192496 -0.0385481 -0.0392176 0.0582625 
380 1 0.0326725 0.0590826 -0.080082 0.104744 
1777 1 0.0220635 -0.0131671 -0.0324662 0.0414032 
2597 1 0.13686 -0.0100874 -0.0526127 0.146971 
2484 1 0.0894345 -0.0218918 -0.0650825 0.112754 
308 1 -0.0481319 -0.0259469 -0.0223331 0.0590651 
3918 2 -0.0219553 0.0346223 -0.00590772 0.0414203 
89 1 -0.0401895 -0.00263623 -0.0304726 0.0505047 
300 1 -0.00545618 0.0271352 -0.00710043 0.0285745 
3582 2 0.0136031 0.0714817 0.00521168 0.0729509 
712 1 -0.052072 0.0244449 0.0510225 0.0768917 
3836 2 -0.00354739 0.0163381 -0.0380917 0.0415992 
268 1 0.0270985 0.00928405 -0.0190956 0.0344262 
788 1 0.0194518 0.00513185 -0.071164 0.0739528 
4091 2 -0.012738 0.0672785 0.0397421 0.0791713 
371 1 0.0420152 0.00749233 0.00872551 0.0435609 
3505 2 0.00437531 -0.0162585 0.070354 0.0723406 
266 1 -0.000533372 -0.019542 -0.0140976 0.0241022 
3571 2 -0.0688635 0.069122 0.00423592 0.0976625 
637 1 -0.0140093 0.0035827 -0.0191443 0.0239917 
157 1 0.0552681 -0.00202459 0.00428797 0.0554712 
257 1 0.011696 0.0389995 0.044427 0.060262 
571 1 -0.0435682 -0.00213079 -0.0451352 0.0627688 
665 1 -0.0570971 0.0341401 0.0779431 0.102473 
448 1 -0.0596767 -0.0162241 0.0111344 0.0628371 
827 1 0.0840261 0.0601325 -0.00973575 0.103784 
3475 2 -0.017188 -0.0204209 0.0195868 0.0331072 
73 1 -0.0116771 0.0748575 -0.0131259 0.0768914 
373 1 0.0265182 -0.0450019 0.0367794 0.0638835 
247 1 -0.003797 -0.00788 -0.0131202 0.0157687 
107 1 0.030962 0.00717893 0.0310566 0.0444375 
675 1 0.00109246 0.0345058 -0.0753793 0.0829088 
434 1 -0.00900283 0.0401721 0.0270956 0.0492851 
159 1 -0.0154205 0.003117 -0.00802469 0.0176608 
32 1 0.0140462 0.0398837 -0.0019301 0.0423289 
3579 2 0.00616915 -0.0604157 -0.011994 0.0619029 
394 1 -0.0250851 0.00294276 0.0258977 0.0361748 
260 1 -0.0461196 0.0014631 0.011028 0.0474423 
3972 2 -0.0234941 0.010586 0.0799373 0.0839882 
1801 1 -0.0525563 -0.00145774 0.04442 0.068829 
2122 1 -0.0102024 0.0240729 0.0417775 0.0492844 
1966 1 0.0252514 0.00466907 -0.0389709 0.0466708 
291 1 -0.00170659 -0.00391056 0.0194745 0.0199364 
2047 1 0.0442179 -0.00320393 0.0292777 0.0531288 
1899 1 -0.0277518 0.112519 0.0156652 0.116944 
622 1 -0.0535389 0.00707437 0.00932905 0.0548041 
1993 1 -0.013922 0.0124915 -0.00868753 0.0206236 
62 1 0.0384224 0.0417687 0.0102732 0.0576753 
2187 1 0.0245074 -0.00180505 -0.0693429 0.0735684 
4318 2 0.0275909 -0.0382836 -0.00516763 0.0474721 
44 1 -0.0323964 -0.0481311 0.0314094 0.0659748 
824 1 -0.0272791 -0.00889615 0.0108034 0.0306595 
1282 1 -0.0318262 0.00428745 0.0654952 0.0729446 
3626 2 0.0204721 0.0264608 -0.00846198 0.0345092 
819 1 0.0310959 0.000380984 0.0267778 0.0410384 
773 1 -0.0545101 -0.0462117 0.0133594 0.0727004 
270 1 0.0438523 -0.0579799 0.0404662 0.0831998 
14 1 -0.0468139 0.0410634 -0.0445864 0.0765878 
3540 2 0.0305165 -0.0436084 -0.00609866 0.0535737 
997 1 0.0646786 0.00955242 0.0126778 0.066598 
4275 2 -0.0113466 -0.0515207 -0.0433801 0.0683005 
164 1 0.0301985 0.0395686 0.097186 0.109191 
234 1 -0.0508406 -0.0506544 0.0277453 0.0769444 
1125 1 0.000221664 0.0629801 -0.0439609 0.0768056 
3985 2 -0.0577996 -0.00658429 0.0640202 0.0865028 
328 1 0.0137446 0.00802836 -0.0324267 0.0361228 
3474 2 0.00652861 0.0184321 -0.00668852 0.0206664 
543 1 -0.0391796 -0.0305937 -0.00331771 0.04982 
293 1 0.0399446 -0.0241864 0.00924871 0.0476035 
3458 2 0.0359518 -0.0449102 0.031139 0.0654148 
390 1 -0.0193146 -0.0443013 0.0277415 0.0557248 
3706 2 0.0928125 -0.034281 -0.0495982 0.110677 
2169 1 0.0456772 0.0195917 0.01778 0.0527861 
1786 1 -0.0367022 0.0284414 -0.0516507 0.0694533 
1478 1 0.0231024 -0.0200968 0.0702554 0.0766383 
87 1 -0.0177827 -0.0277863 -0.00505664 0.0333747 
4090 2 -0.00291957 -0.0455401 0.0469229 0.0654536 
142 1 -0.019982 0.0177011 0.049364 0.0561197 
1650 1 -0.0520076 -0.0232622 -0.0518562 0.0770389 
153 1 -0.00207831 0.0286794 0.015512 0.0326719 
374 1 0.0299339 -0.0230323 0.0077642 0.0385591 
602 1 -0.00871964 -0.019555 -0.0049967 0.0219863 
1277 1 -0.0405534 0.00626953 0.00670256 0.0415789 
76 1 -0.0474776 -0.0186685 0.0276707 0.0580371 
1370 1 0.0301915 -0.0343773 0.0705735 0.0841068 
221 1 0.0165416 -0.00560923 -0.0539985 0.0567531 
604 1 0.000114849 0.0505585 0.0520034 0.0725295 
1161 1 -0.0448494 -3.99735e-05 0.0453648 0.0637922 
1718 1 -0.0766752 0.00104715 -0.0449657 0.0888938 
178 1 0.045386 -0.0764577 -0.00109933 0.0889206 
295 1 -0.041609 -0.0338058 0.0124759 0.0550435 
1472 1 -0.0421978 -0.0529506 0.0329705 0.0753093 
4159 2 -0.0124773 -0.0383574 -0.0264812 0.0482517 
3467 2 0.0688199 -0.003991 0.0198373 0.071733 
3531 2 0.0439994 -0.0110584 0.0838435 0.0953309 
2720 1 -0.0977002 0.0368251 -0.0182995 0.106001 
1851 1 0.0163693 0.0310976 0.000838986 0.0351528 
732 1 -0.0473489 -0.0582724 0.00482215 0.0752386 
4009 2 0.040877 0.0631941 -0.0183651 0.0774707 
3878 2 0.00770173 0.0101348 -0.0162298 0.0206262 
3185 1 -0.0506779 -0.0251886 0.00406854 0.0567386 
110 1 -0.0577682 -0.0166497 0.015072 0.0619802 
2963 1 -0.0146902 0.00545579 -0.0113836 0.0193689 
2608 1 -0.0242534 0.00757965 0.00549494 0.0259976 
3301 1 -0.0020639 -0.0178821 -0.00311012 0.0182675 
3759 2 -0.0166858 0.0327619 -0.0114736 0.038515 
4171 2 0.00341554 0.0178436 0.000407219 0.0181721 
2118 1 -0.0169652 0.00421626 -0.0617353 0.0641627 
1742 1 0.0552886 -0.0762479 0.0139866 0.0952166 
642 1 0.0334258 -0.0796962 0.0603262 0.105395 
3366 1 -0.0512998 0.00899297 0.0481527 0.0709311 
144 1 0.0912849 0.0556028 0.00937805 0.107297 
681 1 0.0374733 -0.0367319 -0.0422402 0.0673625 
1666 1 0.0739785 -0.0261381 -0.0324665 0.0849122 
183 1 -0.0662248 -0.0328174 -0.0146012 0.0753386 
694 1 -0.0828201 0.0159116 0.0584001 0.102581 
444 1 -0.0103938 0.0598363 -0.0543264 0.0814848 
869 1 -0.0057626 -0.0742409 0.0543088 0.0921649 
920 1 -0.00417819 -0.0511711 -0.0313369 0.0601493 
53 1 0.0241917 0.00613015 0.0191669 0.0314672 
1450 1 -0.11104 -0.0512498 0.00443817 0.122377 
1579 1 0.0873563 -0.0441351 0.0499504 0.109882 
51 1 0.0473277 0.0140706 0.0344744 0.0602194 
4187 2 -0.0547492 -0.0307104 -0.134726 0.148633 
1694 1 0.00936527 -0.0632176 0.0271627 0.0694405 
1590 1 0.00820223 0.0340131 -0.0172964 0.0390299 
2005 1 -0.0243451 0.00533849 0.107929 0.110769 
736 1 -0.020664 -0.0153185 -0.0586299 0.0640243 
363 1 0.0149283 -0.0022181 0.0331313 0.0364069 
230 1 0.0128523 0.0149514 0.135715 0.137139 
2538 1 -0.0138161 0.0208419 -0.0568857 0.062139 
357 1 -0.0718396 0.00098999 0.0196797 0.074493 
3849 2 0.0748968 -0.00152065 0.029168 0.0803904 
4102 2 0.0631114 -0.0728256 0.0312295 0.101301 
1032 1 0.0512832 -0.0213788 0.00367686 0.0556825 
78 1 -0.00592736 0.00776683 -0.00956531 0.0136731 
564 1 0.0553575 0.00592471 0.0850224 0.101629 
797 1 0.0969944 -0.0269921 -0.035411 0.106726 
1476 1 0.0868236 -0.0263698 -0.0204219 0.0930095 
872 1 -0.0505606 -0.0322756 -0.0243377 0.0647334 
475 1 -0.0299656 0.00545 0.0101738 0.0321115 
4119 2 0.0480387 -0.0410588 -0.0278173 0.0690459 
576 1 -0.0948503 0.0434854 0.0542867 0.117621 
507 1 0.0395914 -0.00545631 0.0237525 0.0464912 
248 1 0.0707114 -0.0403179 -0.00860163 0.0818512 
3597 2 -0.035693 0.0169498 0.000245247 0.0395138 
539 1 -0.00339785 0.0236696 0.0721616 0.0760203 
63 1 0.058457 0.0106887 0.00996031 0.0602551 
57 1 -0.0875485 0.00524353 -0.0100925 0.0882841 
854 1 -0.00316801 0.0192259 0.00984675 0.0218319 
668 1 0.0959936 -0.0402857 -0.0891164 0.137038 
385 1 -0.0822729 -0.0886168 0.0059269 0.121066 
752 1 0.0298488 -0.0239561 -0.00799379 0.0390991 
3650 2 0.0362806 0.0361771 0.0212663 0.0554736 
3736 2 -0.0689935 -0.0680716 -0.0668269 0.117727 
254 1 -0.0344778 -0.0500558 -0.0206795 0.0642024 