ITEM: TIMESTEP
60
ITEM: NUMBER OF ATOMS
4320
ITEM: BOX BOUNDS pp pp pp
0.0000000000000000e+00 1.9309999999999999e+01
0.0000000000000000e+00 1.9309999999999999e+01
0.0000000000000000e+00 9.6549999999999994e+00
ITEM: ATOMS id type c_displacement[1] c_displacement[2] c_displacement[3] c_displacement[4] 
4012 2 0.0441364 -0.0759079 -0.0333959 0.0939432 
2361 1 -0.0362439 -0.108405 -0.0888238 0.144758 
79 1 -0.0249835 -0.073361 0.00446317 0.0776269 
781 1 0.0593965 -0.0178774 0.123131 0.137872 
461 1 0.00922954 0.0468019 -0.0120748 0.0492077 
3704 2 0.00941254 -0.0941911 0.0145317 0.0957691 
629 1 -0.0617619 0.104002 0.038718 0.127004 
1571 1 0.0159907 -0.0253662 -0.0345365 0.0457374 
58 1 0.0928793 0.105753 0.0932032 0.168811 
2372 1 -0.0561892 -0.0333489 -0.0103151 0.0661497 
372 1 0.0235662 -0.0718892 -0.0137505 0.0768928 
3504 2 -0.0315992 -0.0852962 0.0444676 0.101249 
4130 2 0.0499357 -0.0229562 -0.0976845 0.112084 
1262 1 0.0617392 0.0802734 -0.0559887 0.115716 
907 1 -0.112205 -0.0639078 -0.141075 0.191249 
3659 2 -0.0101704 0.154723 -0.102535 0.185893 
1298 1 0.0417227 0.0801135 -0.106153 0.139383 
1716 1 0.0495007 0.0664452 -0.0721652 0.109878 
1182 1 0.0455763 0.0257949 -0.0327753 0.0617802 
683 1 -0.020911 -0.0578753 0.0554402 0.0828277 
1958 1 -0.0165619 -0.052858 0.0457287 0.0718288 
1554 1 0.0423784 -0.0854022 -0.0819643 0.125728 
1037 1 0.00237119 -0.140879 0.0207217 0.142414 
749 1 -0.0960101 -0.103421 0.0393179 0.146491 
3628 2 0.0457613 0.0631855 -0.0107762 0.0787568 
946 1 -0.0642499 -0.0219281 -0.0459842 0.0819966 
2232 1 -0.0324657 -0.109055 -0.0949767 0.148214 
7 1 0.0353357 -0.00734536 0.0363491 0.0512233 
501 1 -0.0114362 0.0317449 -0.0629381 0.0714124 
179 1 -0.036798 -0.0287034 -0.0376963 0.0599916 
714 1 -0.119042 -0.0271027 0.102155 0.159189 
4166 2 -0.00159683 -0.0791489 0.0628919 0.101106 
276 1 -0.0311247 -0.0252484 0.114787 0.121582 
767 1 -0.0387557 -0.0312969 0.0214387 0.0542321 
3890 2 -0.189851 -0.0495239 -0.108453 0.224183 
6 1 0.0207236 0.163817 -0.02922 0.167688 
2086 1 0.0118729 0.0134868 0.0393868 0.0432918 
224 1 0.0984158 -0.0526958 0.00739953 0.111881 
3660 2 0.0124854 -0.00504118 0.074477 0.0756844 
596 1 -0.0931519 -0.0075397 -0.00847463 0.0938399 
1214 1 0.0351629 -0.0665638 -0.0912572 0.118301 
3686 2 0.0146021 0.0119148 0.0378913 0.0423195 
427 1 -0.104516 0.0680752 0.0992329 0.15939 
350 1 0.0170411 0.0686832 -0.0617979 0.0939509 
85 1 -0.02924 0.0450898 0.0630742 0.0828639 
598 1 0.00675575 -0.0827079 0.101532 0.13113 
3554 2 0.0537715 -0.037922 -0.0399627 0.0769835 
29 1 -0.135616 0.0624282 -0.00722306 0.14947 
464 1 0.0177113 0.00717317 -0.116504 0.118061 
3619 2 -0.0672958 0.0458129 0.111558 0.138104 
12 1 -0.0432046 -0.0989683 -0.0608704 0.123962 
364 1 -0.142808 -0.0141154 -0.0968674 0.173138 
1849 1 -0.0762461 -0.110427 -0.0770027 0.154716 
3663 2 -0.182013 0.0609073 -0.0193084 0.192902 
3517 2 0.0200915 0.00774693 0.126636 0.128454 
25 1 0.210479 0.00968829 -0.0651223 0.220537 
4163 2 0.0312249 -0.0246376 -0.027561 0.0483902 
399 1 0.050717 0.0295613 -0.0272093 0.0647027 
4265 2 -0.0607237 0.0721877 0.0715824 0.118417 
527 1 0.0209442 0.0521015 -0.0472328 0.0733768 
200 1 0.0806307 0.0423545 0.108475 0.14164 
1951 1 0.135523 0.109435 0.0376114 0.178206 
644 1 0.029109 -0.0424466 0.0554501 0.0756555 
193 1 0.0507999 0.0942799 0.0503566 0.118343 
550 1 0.0276089 -0.0282965 -0.0297705 0.0494896 
69 1 0.0248396 -0.0193332 -0.0222858 0.0385673 
842 1 -0.0562205 0.0391748 -0.0417183 0.0802235 
578 1 0.00372839 -0.0204138 0.0187698 0.0279809 
172 1 -0.033903 -0.04324 0.0267504 0.0611122 
381 1 -0.0245998 -0.00199596 -0.0251622 0.0352459 
3524 2 0.0492143 -0.0845767 0.122519 0.1568 
688 1 -0.0685589 0.109186 -0.0172828 0.130079 
3651 2 -0.0580356 0.0509372 0.0637357 0.100125 
2367 1 0.0394392 0.0012833 -0.0420755 0.0576841 
1244 1 -0.108144 -0.0455127 -0.0031471 0.117373 
796 1 -0.053802 0.11493 -0.0387088 0.132672 
691 1 0.0509165 -0.00982759 0.00920722 0.0526673 
421 1 0.075515 0.0512656 0.0475035 0.102894 
597 1 -0.00933729 0.0550014 0.0092868 0.056556 
3617 2 0.0706753 -0.0136059 -0.0364404 0.0806723 
120 1 0.0837657 0.166225 0.0905278 0.206985 
769 1 -0.0804572 -0.0338036 0.0469161 0.0990816 
2142 1 -0.000985617 0.042647 -0.0335737 0.0542857 
3611 2 0.156343 0.0199921 0.176043 0.236292 
1915 1 -0.0100977 0.0743668 0.0635117 0.0983164 
2140 1 0.0222754 -0.026456 0.103964 0.109566 
3828 2 0.115921 0.0517228 0.0660662 0.1431 
3204 1 -0.00756539 0.0592257 0.0527234 0.0796535 
175 1 0.111479 0.0122346 -0.0463897 0.121364 
2011 1 0.151784 0.0666059 -0.0071898 0.165911 
75 1 -0.00344048 0.131299 -0.0580622 0.143605 
547 1 0.00596361 -0.0367746 -0.117308 0.123082 
4316 2 -0.082867 0.0626759 -0.0736502 0.127356 
559 1 0.0230571 0.0361336 -0.0172374 0.0461995 
717 1 -0.0123329 0.0804139 -0.0618148 0.102174 
242 1 -0.00404039 -0.0415014 0.0896677 0.0988887 
3510 2 -0.102659 0.0242596 0.132286 0.169195 
130 1 0.111193 -0.0181988 0.12609 0.169097 
143 1 0.000123894 0.0765078 -0.0674629 0.102003 
202 1 -0.151944 -0.107617 -0.0711035 0.199309 
182 1 -0.140717 0.0521591 0.0146143 0.150783 
84 1 0.0420407 -0.0158517 -0.0123916 0.0466074 
3633 2 -0.00568911 -0.0555357 0.0104683 0.0567993 
35 1 -0.170105 0.0430921 0.130056 0.21842 
3612 2 0.0226329 0.0412576 -0.00521443 0.0473458 
40 1 0.151849 0.106432 0.0940634 0.207928 
4005 2 0.0685611 -0.08253 0.0508891 0.11875 
718 1 -0.105498 -0.016128 -0.0554668 0.120277 
134 1 -0.0207244 0.0135163 0.109477 0.112238 
511 1 -0.0528168 -0.0394136 0.00065383 0.065905 
757 1 0.0140712 0.166109 0.00526264 0.166787 
3555 2 -0.0724309 0.0876532 0.0534293 0.125634 
3481 2 -0.0244516 -0.0231477 -0.0400627 0.0523327 
135 1 0.00273574 -0.0437183 -0.0880227 0.0983197 
369 1 0.0891056 -0.0425986 0.0551755 0.113132 
2148 1 -0.0986081 -0.0635651 0.0580442 0.130894 
3462 2 0.0557953 -0.0634224 -0.170945 0.190677 
1914 1 0.0076893 0.0551972 -6.50949e-05 0.0557303 
3661 2 0.0972419 -0.140397 0.00718108 0.170935 
1871 1 0.0136439 0.0388826 -0.0466396 0.0622355 
320 1 -0.0663109 -0.048873 -0.0500979 0.0964132 
582 1 -0.0420346 -0.102719 -0.0546146 0.123697 
766 1 -0.0223599 0.0168619 -0.00989131 0.0297006 
3552 2 0.0232206 -0.0154058 -0.00806426 0.0290098 
2290 1 -0.0369926 0.0415946 0.0272482 0.061976 
1794 1 -0.0163007 0.0769953 0.0918597 0.120964 
753 1 -0.0401986 0.0413638 0.0608116 0.083815 
396 1 0.0132686 -0.00683203 0.16097 0.16166 
496 1 0.00109807 -0.0205425 -0.0961163 0.0982931 
480 1 -0.0447194 -0.064847 0.0920493 0.121153 
253 1 0.0493862 -0.0081505 -0.0380003 0.0628446 
4033 2 -0.0132554 0.0197549 -0.0667117 0.0708267 
347 1 -0.0325161 0.015408 -0.0586235 0.0687853 
586 1 -0.109209 0.0469608 -0.111514 0.162995 
3671 2 0.0177944 0.021895 -0.0500205 0.0574289 
37 1 0.0418333 -0.146166 -0.0168019 0.15296 
782 1 0.0302477 -0.141681 -0.0494496 0.153081 
481 1 0.0953777 -0.0403648 -0.0792129 0.130388 
392 1 -0.0253165 0.0399316 -0.0939383 0.105166 
333 1 0.0475037 -0.0343518 -0.0212362 0.0623508 
342 1 -0.0280355 -0.0529544 -0.0414459 0.0728555 
1179 1 0.005191 -0.0490574 -0.0632762 0.0802337 
517 1 0.018802 -0.0974729 -0.0261077 0.102646 
1824 1 0.041803 -0.054483 0.0952593 0.117432 
34 1 0.0983747 -0.00544525 0.0376245 0.105465 
398 1 -0.0162366 -0.0624218 -0.0833513 0.105392 
170 1 -0.069112 -0.0669128 -0.056545 0.111585 
235 1 0.0501804 -0.093744 0.0939919 0.141917 
3852 2 -0.0400947 0.0069722 -0.014026 0.0430457 
816 1 0.0453119 -0.0429274 -0.0982213 0.116376 
3931 2 -0.151619 -0.134475 0.0827516 0.218906 
274 1 -0.0211481 -0.0595467 -0.0266274 0.0685717 
30 1 -0.0144871 -0.0437113 -0.0387185 0.0601638 
2066 1 0.0826023 -0.0365493 0.149594 0.17475 
1082 1 -0.0207835 -0.132515 0.11056 0.173827 
1372 1 0.00685568 -0.0547519 0.107362 0.120712 
1265 1 0.0703561 -0.0371852 -0.0761382 0.110135 
601 1 -0.0327538 0.0749348 0.0111949 0.0825431 
540 1 -0.0359934 -0.0720774 -0.0151048 0.0819685 
589 1 -0.0434857 0.147224 0.125629 0.198365 
958 1 0.139385 -0.0197985 0.0295428 0.14385 
504 1 -0.0816897 0.0626189 -0.035439 0.108859 
1349 1 -0.121571 0.00152242 -0.0654215 0.138064 
9 1 0.0288898 -0.128123 0.0106567 0.131771 
149 1 -0.0164597 0.0600642 -0.0179477 0.0648132 
163 1 0.00930726 -0.185711 0.057078 0.194507 
4247 2 0.0276225 -0.0845895 -0.0513513 0.102739 
1584 1 0.17397 -0.0111135 -0.0779203 0.190947 
3570 2 -0.0388001 -0.102794 -0.0309244 0.114141 
237 1 0.0158372 0.0645836 0.0965473 0.117232 
490 1 0.0156175 -0.0902247 -0.0279281 0.0957308 
50 1 -0.0240403 -0.00912973 0.0149422 0.0297415 
152 1 0.0911872 -0.00174726 -0.112642 0.144936 
3652 2 -0.0589619 -0.0416573 -0.0029565 0.0722536 
3823 2 0.0717572 0.0959296 -0.145002 0.188088 
902 1 0.0192486 0.0649218 -0.00886261 0.0682927 
3574 2 -0.0353992 0.0601867 -0.0517867 0.0869334 
770 1 -0.0150769 -0.0643528 -0.0589649 0.0885746 
154 1 -0.0455554 -0.0561802 -0.00475386 0.0724852 
116 1 0.0954565 -0.0554038 0.0756256 0.133794 
710 1 -0.0915139 -0.163039 -0.103226 0.21357 
1956 1 -0.0496428 0.00756169 -0.00793708 0.0508388 
1810 1 -0.109694 -0.0260359 0.0485948 0.122769 
2072 1 -0.0689384 -0.0369339 -0.00330423 0.0782786 
1649 1 -0.0650535 0.025094 -0.0979635 0.120244 
186 1 -0.0606707 0.0743772 0.0730789 0.120638 
1063 1 -0.111082 0.132808 -0.166246 0.240031 
432 1 -0.164321 0.0611283 -0.146598 0.228537 
2495 1 -0.0162484 -0.101362 0.0558522 0.116866 
3896 2 -0.0109393 -0.0173827 -0.0955017 0.0976852 
4115 2 0.0496616 -0.00929821 -0.0338797 0.0608323 
913 1 0.0532132 -0.0288361 0.0102286 0.0613824 
1068 1 -0.0523668 0.0108222 -0.034406 0.063586 
265 1 -0.0888919 -0.0234462 -0.0611913 0.110435 
1287 1 0.0385387 0.0979905 0.021964 0.107563 
3799 2 0.0992527 -0.0810811 -0.134977 0.186129 
554 1 0.0859361 -0.0798403 -0.00953285 0.117688 
1414 1 -0.00333203 0.0566637 -0.0639037 0.0854726 
213 1 0.0105643 0.00323986 0.0497919 0.0510033 
341 1 -0.104946 -0.042563 -0.0295554 0.117042 
3682 2 -0.0149017 0.0713757 -0.0601037 0.0944934 
754 1 -0.0850569 0.0334292 0.0284114 0.0957047 
112 1 -0.0524388 0.0411996 0.00208659 0.0667202 
1041 1 -0.014588 -0.0192688 0.016424 0.0292206 
119 1 0.0307036 0.0683504 0.0241081 0.0787127 
415 1 -0.0578584 0.0090609 -0.0487321 0.0761873 
995 1 -0.0686055 0.0514509 0.0205645 0.0881862 
4128 2 0.0393441 -0.0286687 0.187938 0.194141 
8 1 0.0233476 0.0700993 0.00952091 0.0744961 
94 1 0.0413996 -0.0238768 -0.0126256 0.0494311 
48 1 0.0479808 0.00449963 0.0602089 0.0771201 
437 1 0.0108325 -0.0549021 -0.0597416 0.0818575 
3866 2 0.0682261 0.0202118 -0.0433986 0.0833473 
2206 1 0.0208288 0.0075776 -0.0154978 0.0270451 
3490 2 -0.0926219 0.0209105 -0.0473965 0.106125 
3072 1 -0.0336128 -0.0906064 0.0466032 0.10729 
3002 1 0.0821809 0.119395 0.0319836 0.148431 
92 1 0.0480654 0.0927816 0.0935287 0.140237 
335 1 -0.0165594 0.0702858 -0.0338935 0.0797689 
2192 1 -0.0111969 0.0176929 0.0936058 0.095919 
1186 1 0.035277 -0.0253508 -0.0178089 0.0469498 
1114 1 0.0504714 -0.0219533 0.0255514 0.060681 
1821 1 -0.0742057 -0.0753336 -0.0661771 0.124744 
1922 1 0.0568271 -0.0891133 0.0531937 0.118322 
451 1 -0.117735 -0.0330198 -0.0108656 0.12276 
3960 2 -0.00749804 -0.0396667 0.0390817 0.0561876 
100 1 -0.0385544 0.0218377 -0.0860387 0.096778 
1180 1 0.0303729 -0.0511373 -0.098879 0.115389 
165 1 0.0690673 -0.0280343 -0.0120404 0.0755062 
388 1 -0.0713172 -0.0327556 -0.0727987 0.107045 
3742 2 0.0599226 -0.0585842 0.0144061 0.0850315 
323 1 -0.134021 0.145656 -0.0197576 0.198916 
288 1 -0.0916673 0.0191542 -0.0110841 0.0943008 
3942 2 -0.0918366 0.0864197 0.106173 0.164848 
66 1 0.0661436 0.0228073 0.06595 0.0961486 
340 1 0.0407641 0.0489149 -0.04179 0.0761628 
138 1 -0.0158133 -0.0164122 0.0234504 0.0327008 
879 1 -0.0208222 -0.038971 -0.0687931 0.0817606 
3808 2 0.0744036 0.117914 -0.0297344 0.142561 
834 1 0.0347573 0.0258463 0.00924008 0.0442886 
18 1 -0.0792425 -0.0635476 -0.0908283 0.136262 
3679 2 0.0695144 -0.0456688 -0.0535619 0.0989281 
52 1 0.0364151 -0.0941515 0.00495394 0.10107 
407 1 0.0185542 0.0286418 -0.068958 0.0769403 
360 1 0.0705427 -0.0440269 -0.0746807 0.111767 
2885 1 -0.0880233 -0.0239025 -0.0113003 0.0919083 
3526 2 -0.0325198 -0.231504 -0.054338 0.240009 
310 1 -0.0850026 -0.0446739 -0.0273715 0.0998518 
326 1 0.121941 -0.0170505 0.0774217 0.145446 
227 1 -0.0331693 -0.0527805 -0.0445241 0.0766053 
2068 1 -0.137502 -0.01694 -0.126239 0.18743 
456 1 0.0606688 -0.0159439 0.0458401 0.0776932 
279 1 -0.00501283 0.0365984 0.125424 0.13075 
305 1 0.00560124 0.0468903 -0.0511046 0.0695828 
49 1 0.00144994 0.0936322 0.0541 0.108148 
3512 2 0.0218413 -0.123925 0.0375596 0.131321 
11 1 -0.0805435 -0.189475 0.0242717 0.207309 
189 1 -0.0927704 0.11571 0.0495188 0.156356 
2271 1 -0.115956 -0.0547727 -0.0233566 0.130351 
319 1 -0.108428 -0.0599343 0.00554269 0.124014 
3566 2 0.0355651 0.0575274 -0.0661574 0.0946101 
71 1 0.0343818 -0.0012684 0.0555313 0.0653256 
1560 1 -0.0279882 -0.00361659 0.0536291 0.0606011 
190 1 -0.0599631 0.00244122 0.10465 0.120637 
123 1 0.0814771 0.0013561 0.101012 0.129783 
27 1 -0.0343392 -0.0145033 -0.0233076 0.0439633 
162 1 0.00754035 0.0339299 -0.092141 0.0984787 
255 1 -0.115653 -0.00140553 -0.0170763 0.116916 
304 1 -0.0759339 -0.0106423 -0.0717578 0.105016 
321 1 0.0150634 -0.0489285 0.145925 0.154645 
682 1 -0.0905693 0.0165031 0.00712654 0.0923361 
3469 2 0.0320203 0.018246 -0.0828519 0.0906789 
3539 2 0.0198876 0.0179305 0.112367 0.115513 
128 1 0.0495666 -0.0708636 -0.0898112 0.124678 
3562 2 0.109759 0.0200082 0.130521 0.171707 
560 1 -0.167086 -0.0557245 -0.0457101 0.181968 
212 1 -0.0495531 0.0648636 -0.0617073 0.102326 
355 1 0.018586 0.052909 0.0860512 0.102711 
156 1 0.0115415 0.0839714 0.0567764 0.102019 
3620 2 0.0486615 -0.072718 -0.00676419 0.0877587 
1823 1 0.208331 -0.145977 -0.0907499 0.270087 
1805 1 -0.117149 0.0501374 0.094764 0.158801 
2599 1 -0.079055 0.0319222 0.0860365 0.121124 
327 1 0.0919618 0.0133267 0.0346965 0.0991889 
137 1 0.0724773 0.0362232 0.00970096 0.0816038 
2334 1 0.00143022 0.025546 0.0391923 0.0468047 
3698 2 0.0280735 -0.0645126 -0.0044934 0.0704996 
555 1 -0.0311988 -0.0502869 -0.047036 0.0755945 
4178 2 -0.0105045 -0.0923729 0.0529785 0.107004 
290 1 -0.00655932 0.0170515 -0.0134956 0.0227136 
284 1 0.0266825 0.0251538 -0.0318207 0.0485513 
3543 2 -0.0620171 -0.0416926 0.0239953 0.0784868 
366 1 0.0332342 -0.0243803 0.0882841 0.097432 
55 1 0.00777643 0.0501049 -0.0121071 0.0521302 
273 1 -0.0345224 -0.0206256 -0.0627181 0.0745035 
3468 2 0.100183 -0.0173886 0.0912616 0.13663 
316 1 0.144275 0.029169 0.113595 0.185929 
81 1 -0.0570766 -0.0266155 0.00205518 0.0630107 
322 1 0.0436764 -0.056369 0.0425178 0.0830232 
239 1 0.0102655 0.00412713 -0.0579886 0.0590347 
734 1 -0.00459554 -0.061503 -0.0648618 0.089503 
384 1 0.0639866 -0.0846724 -0.0906735 0.13959 
3476 2 0.00364286 0.0969831 0.0138554 0.0980355 
311 1 -0.0463611 -0.0818819 -0.0670737 0.115555 
3471 2 0.0322565 0.0371825 0.0597435 0.07741 
1938 1 0.0700472 -0.0615711 0.0111236 0.093922 
139 1 0.173335 -0.0179372 -0.0220846 0.175655 
727 1 0.0892677 -0.0915835 0.0193686 0.12935 
1885 1 -0.00790645 0.0366464 -0.0531323 0.065027 
2184 1 0.179723 0.132611 -0.0730789 0.235003 
2494 1 -0.166363 -0.0186048 -0.14261 0.21991 
2091 1 -0.0139641 0.0201935 -0.0697022 0.0738997 
281 1 0.0232357 0.10553 0.124281 0.164688 
863 1 -0.00616826 0.0701457 -0.0842184 0.109778 
176 1 -0.0614819 0.0488496 -0.06708 0.103276 
3710 2 0.0011494 0.0692432 -0.056959 0.0896675 
3572 2 -0.0189858 -0.114781 -0.0986805 0.152555 
4197 2 -0.0617379 0.0774681 -0.0817362 0.128428 
343 1 -0.0491494 -0.0410259 -0.114799 0.131444 
282 1 -0.0552208 -0.0267964 -0.0523252 0.0806555 
1038 1 0.00494092 0.0765557 0.0657575 0.101041 
408 1 0.194888 0.00564378 -0.00127994 0.194974 
412 1 0.129555 -0.0396232 -0.0115474 0.13597 
820 1 0.132608 0.0275649 0.0879461 0.16149 
585 1 -0.097129 -0.0288319 -0.109791 0.149397 
3609 2 0.0859192 -0.118686 0.0272935 0.149042 
719 1 -0.0159925 0.0497108 -0.0240615 0.0574967 
608 1 0.040502 0.0687652 0.0603975 0.100085 
106 1 0.00826242 0.0521291 0.0567666 0.0775123 
1047 1 -0.126756 -0.0460479 -0.0361424 0.13962 
3573 2 0.0298212 0.0476345 -0.0804438 0.0981303 
751 1 -0.0117963 -0.0172794 -0.0838765 0.0864465 
259 1 0.0767881 -0.0297284 -0.00110003 0.0823493 
245 1 -0.0716337 -0.0437484 -0.0112367 0.0846851 
613 1 -0.0575942 -0.0682311 0.109462 0.14126 
4296 2 -0.0193577 0.0560057 0.0269469 0.0650961 
272 1 -0.109326 -0.129876 -0.0363545 0.173614 
4239 2 -0.1005 -0.101172 -0.0803257 0.163671 
88 1 0.0876255 0.105765 0.105161 0.172984 
4 1 0.07009 -0.000995337 -0.0740537 0.101968 
361 1 0.11098 0.104694 -0.154033 0.216803 
358 1 -0.0609692 0.000514801 0.0183784 0.063681 
194 1 0.0279362 0.042663 -0.098264 0.110708 
2373 1 0.0213356 0.00221833 -0.104615 0.106792 
1982 1 0.0438295 0.0230775 0.0421 0.0650077 
3953 2 0.00734742 0.0404009 0.0963267 0.104714 
414 1 0.0240578 0.0280953 -0.0933111 0.100375 
3186 1 0.0992972 -0.071271 -0.00845572 0.122519 
177 1 0.064296 -0.0538418 0.0243477 0.0873255 
1962 1 -0.0282406 0.073612 0.138819 0.159647 
706 1 0.00189708 0.0308438 -0.0343218 0.0461836 
1544 1 0.0144188 -0.123461 0.0727712 0.144036 
4160 2 -0.0301691 0.0541225 -0.032704 0.070064 
19 1 -0.0612591 0.0449507 -0.106159 0.130549 
3624 2 -0.0261989 -0.013069 -0.0764788 0.0818914 
115 1 0.0775367 -0.0512183 -0.0732618 0.118332 
1102 1 -0.0628485 -0.0335294 0.0420807 0.0827341 
2048 1 0.0935443 -0.0195223 -0.0220568 0.0980722 
649 1 0.0352696 0.108788 -0.032273 0.118829 
113 1 0.0118008 -0.0387612 0.0102496 0.041794 
1150 1 -0.00560081 0.00627789 0.05352 0.0541773 
620 1 0.00991513 -0.0634496 -0.0143755 0.0658089 
739 1 -0.0492698 -0.0409222 -0.0367514 0.0738431 
2412 1 0.00851356 0.0320943 -0.0133722 0.0357959 
3746 2 0.101474 0.0321275 -0.170616 0.201095 
1225 1 -0.0133376 0.0430996 0.112118 0.120855 
241 1 0.116474 -0.0130041 0.0046886 0.117291 
83 1 0.0218591 -0.010184 -0.0135861 0.0276788 
1006 1 0.0479009 0.005091 -0.00553078 0.0484872 
4046 2 -0.0705278 -0.0999763 -0.0331747 0.126767 
96 1 -0.0128942 -0.143249 0.0330589 0.147578 
411 1 0.106666 0.0522243 0.0753214 0.140635 
2454 1 -0.0724062 0.0122616 0.0407488 0.0839849 
404 1 -0.0817364 0.0850856 0.0804271 0.14279 
226 1 0.0422781 -0.0139299 0.0666228 0.0801254 
534 1 0.0499168 -0.0370362 0.122047 0.136963 
3538 2 -0.0408817 0.0627099 -0.056729 0.0939256 
761 1 0.0622074 -0.0383608 0.0647655 0.0976519 
246 1 0.0549367 -0.0513125 0.0171368 0.0771018 
2229 1 -0.0237108 -0.145044 -0.0103671 0.147334 
146 1 0.000943622 -0.0748136 -0.0607099 0.0963517 
3608 2 0.0384063 5.24214e-05 0.0135074 0.0407123 
503 1 -0.0076171 -0.00281457 0.022354 0.0237833 
505 1 0.12937 -0.0495732 0.0190681 0.139849 
1430 1 -0.0679081 -0.0536313 -0.0491253 0.0995043 
97 1 -0.0697597 0.0494945 -0.101971 0.133095 
1723 1 0.0343642 0.005219 -0.0922941 0.0986222 
3561 2 0.0629062 0.168076 -0.0545636 0.187574 
20 1 -0.0708174 -0.0470412 0.00988534 0.0855903 
263 1 -0.0556193 0.153862 -0.00613943 0.163722 
817 1 0.103104 -0.0774707 0.0197864 0.130475 
1034 1 0.0154532 0.0327869 0.0159638 0.0396059 
353 1 0.0386311 -0.0296124 0.174592 0.18125 
1260 1 0.05108 0.118937 -0.0394748 0.135327 
998 1 0.0425066 0.101623 -0.0683271 0.129625 
1932 1 0.127433 -0.148422 -0.0386969 0.199413 
36 1 0.105508 -0.157873 -0.0470594 0.195628 
38 1 0.0283126 0.0273452 -0.0380039 0.0547143 
3130 1 -0.0570048 -0.0424716 -0.0573954 0.0913653 
1973 1 0.0917511 0.0236204 0.143423 0.171891 
307 1 0.0554277 -0.039627 -0.017896 0.0704471 
2714 1 0.0743136 0.0304976 0.0212753 0.0830979 
28 1 0.0814402 0.0398617 -0.000436285 0.0906733 
1937 1 0.00385908 0.0550657 -0.0559989 0.078632 
562 1 -0.0772403 -0.117086 -0.001778 0.140279 
3011 1 -0.0416643 0.0064039 -0.0114198 0.0436731 
410 1 0.0805879 -0.0800127 0.0407234 0.120643 
693 1 0.0760064 0.0899504 0.165733 0.203311 
367 1 -0.00815053 0.0038058 0.00701542 0.0114075 
318 1 0.0423884 0.0366392 -0.10174 0.116148 
735 1 0.130404 -0.00308193 0.0219161 0.132269 
600 1 -0.0102733 0.0444254 0.0266103 0.0527946 
3590 2 -0.00599343 0.0778565 0.0166752 0.0798474 
3636 2 0.0526423 -0.0841632 0.0520872 0.112106 
26 1 -0.129546 0.0599906 0.0697499 0.15889 
1199 1 0.0256224 0.0538196 -0.0696846 0.0917006 
614 1 0.00630641 -0.0254903 -0.0458519 0.0528386 
459 1 -0.0188717 -0.0829138 -0.0638968 0.106366 
3645 2 0.0719039 0.117915 0.0633932 0.151963 
574 1 0.0626543 -0.0433396 0.0838759 0.11331 
780 1 0.127765 0.00256934 0.00352402 0.127839 
161 1 -0.107923 -0.0301079 0.0565393 0.125501 
309 1 0.113482 0.0892229 -0.00437856 0.144423 
365 1 0.0393374 -0.152508 -0.0727652 0.173497 
191 1 -0.072108 0.0885741 -0.000440763 0.114215 
1766 1 -0.0610858 0.0149236 -0.0346659 0.0718047 
2775 1 0.0735796 -0.0584977 -0.071205 0.117924 
1030 1 0.143963 -0.0991765 -0.000984287 0.174821 
1505 1 0.148248 0.164115 0.122413 0.252777 
3872 2 -0.0325285 0.0235045 -0.00212196 0.0401879 
580 1 -0.0359637 -0.0356399 0.00696483 0.0511087 
2054 1 -0.076265 -0.0835017 -0.0501933 0.123726 
2064 1 0.110102 0.0113218 -0.0500192 0.12146 
529 1 -0.0127143 0.0436375 -0.0875007 0.0986015 
402 1 -0.0221173 0.0600685 0.0306885 0.0709872 
124 1 -0.040031 -0.106961 0.0521774 0.125561 
744 1 0.113587 -0.00884255 0.0423783 0.121557 
185 1 0.0697746 -0.0313141 0.0875194 0.116227 
315 1 -0.0195329 -0.0389684 -0.0425248 0.0608969 
655 1 -0.0177107 -0.0593705 0.155151 0.167064 
765 1 -0.0108131 0.0595018 0.024856 0.0653851 
140 1 0.0209621 0.0923272 -0.130913 0.161561 
59 1 -0.0367938 0.000354132 0.0682324 0.0775215 
54 1 0.00514278 0.0357469 0.0188478 0.0407373 
3506 2 -0.0309753 0.120578 -0.103828 0.162107 
666 1 -0.0209994 -0.151848 0.0645466 0.166328 
43 1 0.085412 0.0873178 0.0849874 0.148803 
334 1 -0.042227 -0.0361966 0.0291406 0.0627893 
267 1 0.146741 0.0298651 -0.0841028 0.17175 
99 1 0.0705514 0.109558 0.0777549 0.151744 
1189 1 -0.101188 -0.0314002 -0.169202 0.199635 
201 1 -0.0314671 -0.086619 -0.0524994 0.106062 
380 1 0.0123654 0.126378 -0.16369 0.207168 
1777 1 0.0109246 -0.0176138 -0.0510374 0.0550855 
2597 1 0.249173 -0.0273099 0.00743533 0.250776 
2484 1 0.131645 -0.0440908 -0.0652259 0.153391 
308 1 -0.0099476 -0.00796923 -0.0560164 0.0574482 
3918 2 -0.0413635 0.108402 0.0668315 0.133897 
89 1 -0.0913041 0.0586929 -0.0243771 0.111245 
300 1 -0.0122908 0.00136085 0.0075482 0.0144876 
3582 2 0.0347197 0.0143141 -0.00466342 0.037843 
712 1 -0.0778432 0.0670894 0.0254042 0.105858 
3836 2 -0.016965 0.0603536 -0.0640833 0.0896495 
268 1 -0.0120171 -0.0173744 0.0178307 0.0276444 
788 1 -0.0255441 0.109078 -0.0894602 0.143365 
4091 2 -0.00476689 0.155909 -0.0116469 0.156416 
371 1 0.0208472 0.0759831 0.118221 0.142071 
3505 2 0.0529187 -0.0199662 0.0370421 0.0676103 
266 1 0.115106 -0.0782311 -0.0775819 0.159338 
3571 2 -0.00318328 -0.0479009 0.0698571 0.0847623 
637 1 -0.00955906 -0.000736414 -0.08792 0.0884412 
157 1 -0.059563 -0.0106404 0.0855389 0.104775 
257 1 0.0199964 0.0155933 0.0109396 0.0276167 
571 1 -0.0262607 0.043055 -0.013026 0.0520868 
665 1 -0.151823 -0.0243495 0.171174 0.230094 
448 1 -0.118878 -0.0870686 0.0252962 0.149509 
827 1 0.0829873 0.0983552 0.0148501 0.129542 
3475 2 0.072046 0.0365677 0.0560736 0.0983467 
73 1 -0.0348839 0.080409 0.00418755 0.0877498 
373 1 0.0999534 -0.00604933 0.0949388 0.137988 
247 1 0.0297267 -0.0340235 -0.0570951 0.0728088 
107 1 0.0636993 0.0377952 -0.0441327 0.0862193 
675 1 -0.0565093 0.0759349 -0.106923 0.142801 
434 1 0.00585822 0.0668535 0.00283562 0.0671696 
159 1 -0.0651576 0.0661805 -0.0229316 0.0956621 
32 1 0.0701163 0.105963 0.00751181 0.127283 
3579 2 0.0717283 -0.0600862 -0.0815528 0.124122 
394 1 -0.0538441 0.0126232 0.0565346 0.0790866 
260 1 -0.0310897 0.0634081 0.0193131 0.073213 
3972 2 -0.0701169 0.043416 0.0905531 0.122479 
1801 1 -0.0607199 0.0346304 0.0637391 0.0945983 
2122 1 -0.0173876 0.0110542 0.14472 0.146179 
1966 1 -0.00952677 -0.0706833 -0.0974072 0.120727 
291 1 -0.0107181 0.0160935 0.0327495 0.0380317 
2047 1 0.0848066 0.0335473 0.0566253 0.10735 
1899 1 0.0260198 0.0651661 0.000422424 0.07017 
622 1 -0.044864 0.0876322 -0.000170652 0.098449 
1993 1 -0.0159808 -0.0079455 -0.00420106 0.0183348 
62 1 0.0231132 0.0593116 0.0583788 0.0863723 
2187 1 -0.0533647 0.00462577 -0.107651 0.120241 
4318 2 0.0772502 0.00484581 -0.00102728 0.0774088 
44 1 -0.0104927 -0.00789769 0.0882736 0.0892451 
824 1 0.0387323 -0.0104319 0.0643143 0.0757981 
1282 1 0.00168056 -0.000612334 0.112214 0.112228 
3626 2 0.117866 0.0816263 -0.0275246 0.145989 
819 1 0.044663 0.0729202 0.0814488 0.118093 
773 1 -0.121315 -0.146978 0.0447893 0.19577 
270 1 -0.0311514 -0.0565298 -0.019762 0.0675024 
14 1 -0.0920618 -0.0348417 -0.0224087 0.100953 
3540 2 0.0595802 -0.00839312 -0.012836 0.0615224 
997 1 0.0731675 -0.0866079 -0.0401126 0.120264 
4275 2 -0.0337249 -0.0750498 -0.134241 0.15745 
164 1 0.0456414 0.0608958 0.158339 0.175678 
234 1 0.0328114 -0.0293125 0.0828985 0.0938508 
1125 1 -0.0153779 0.010523 -0.0735792 0.075902 
3985 2 -0.0561759 -0.0116946 0.0599183 0.082962 
328 1 0.0276032 0.00233627 -0.0461779 0.0538497 
3474 2 0.00860411 0.0034808 -0.0588526 0.05958 
543 1 -0.0830949 0.00745844 -0.00482096 0.0835682 
293 1 0.104383 -0.0665663 0.0805735 0.147713 
3458 2 0.0928919 -0.0444423 0.0959151 0.140726 
390 1 -0.00918174 -0.0219083 -0.0665792 0.07069 
3706 2 0.102 -0.193535 -0.0959287 0.238877 
2169 1 0.0844971 0.1073 -0.0357033 0.141166 
1786 1 0.0186922 0.0136982 -0.0688423 0.0726382 
1478 1 -0.0215305 0.0353402 0.150207 0.155804 
87 1 0.0271413 -0.00221032 -0.0420621 0.0501074 
4090 2 -0.0319813 -0.0435589 0.0404535 0.0675031 
142 1 -0.00233786 0.0275227 0.035599 0.0450583 
1650 1 -0.0814115 -0.0781021 -0.0899067 0.14426 
153 1 0.0315367 0.0163584 0.00970295 0.0368281 
374 1 0.050173 -0.0313336 -0.053581 0.0798126 
602 1 0.0201074 -0.0815564 -0.0864118 0.12051 
1277 1 -0.0641884 0.00898777 0.0327165 0.0726037 
76 1 0.010968 -0.047375 0.124768 0.133909 
1370 1 0.0619161 -0.0240389 0.0943145 0.115355 
221 1 -0.0180451 0.0878614 -0.0191535 0.0917175 
604 1 -0.051335 0.0530965 0.0999552 0.12428 
1161 1 -0.0655439 -0.0633362 0.00352223 0.0912134 
1718 1 -0.120449 0.0339142 -0.134946 0.184034 
178 1 -0.0231936 -0.233237 -0.0241184 0.235625 
295 1 -0.14303 -0.0701915 0.00844528 0.159549 
1472 1 -0.0909975 -0.017705 0.00114898 0.092711 
4159 2 -0.00427702 -0.0319928 -0.0274871 0.0423954 
3467 2 0.11055 -0.0183965 -0.00172756 0.112084 
3531 2 -0.0402253 -0.0786584 0.132972 0.159646 
2720 1 -0.0708398 0.0903907 -0.0689967 0.133975 
1851 1 -0.019233 0.00540465 -0.00439581 0.0204558 
732 1 -0.0103758 -0.0878263 0.0235596 0.0915214 
4009 2 -0.0466887 0.140492 -0.0165676 0.148971 
3878 2 0.0501434 0.0502609 -0.035111 0.0792041 
3185 1 -0.189835 -0.0278754 0.0337678 0.19482 
110 1 -0.0624494 -0.00119236 0.0371894 0.0726939 
2963 1 -0.0452875 0.00699332 -0.0341137 0.057128 
2608 1 -0.0387598 0.0041199 -0.0202041 0.0439033 
3301 1 0.0209823 0.012834 0.090229 0.0935214 
3759 2 -0.0336271 -0.0450861 -0.0288498 0.0632127 
4171 2 -0.0700833 0.0235244 0.018838 0.0762885 
2118 1 -0.00134105 0.0745185 -0.0300864 0.0803741 
1742 1 0.0217029 -0.0292773 0.0388195 0.053246 
642 1 0.0318416 -0.175388 0.0402663 0.182746 
3366 1 -0.0404951 0.0260117 0.103841 0.114452 
144 1 0.145027 0.168589 0.0237269 0.223647 
681 1 0.0608085 -0.035755 -0.118336 0.137766 
1666 1 0.0845538 -0.0646913 -0.0306372 0.110783 
183 1 -0.1102 -0.0974597 -0.0410045 0.152722 
694 1 -0.16249 0.00683029 0.0696403 0.176917 
444 1 -0.0493165 0.0526986 -0.135282 0.153332 
869 1 -0.0545455 -0.148021 0.135346 0.207856 
920 1 -0.0250287 -0.1201 -0.026808 0.125575 
53 1 0.0621259 -0.00810602 0.0455813 0.077479 
1450 1 -0.232281 -0.0418182 -0.0836584 0.250403 
1579 1 0.0926321 -0.108435 0.0665734 0.157387 
51 1 0.125356 0.0218877 -0.0290635 0.130529 
4187 2 -0.116436 -0.0831071 -0.173866 0.225152 
1694 1 -0.00414246 -0.125758 0.174944 0.215494 
1590 1 0.0312924 0.017739 -0.0736401 0.0819558 
2005 1 0.0106594 -0.0419489 0.128737 0.135818 
736 1 -0.0944605 0.00476364 -0.0302086 0.0992877 
363 1 0.0971795 0.00154502 0.0189304 0.0990182 
230 1 0.0193655 0.0295657 0.118065 0.123242 
2538 1 0.0567305 -0.0443288 -0.05091 0.0881772 
357 1 -0.0712418 0.000519286 -0.0230012 0.0748647 
3849 2 0.155328 -0.0440077 -0.0769447 0.17884 
4102 2 0.0143982 -0.124047 0.0448815 0.1327 
1032 1 0.0728964 0.0163376 0.0439133 0.0866555 
78 1 0.00143454 0.060215 -0.0376635 0.0710384 
564 1 0.226282 -0.0427009 0.103582 0.2525 
797 1 0.155367 -0.0605454 -0.0482989 0.173602 
1476 1 0.205238 -0.00600804 -0.0295955 0.207448 
872 1 -0.11137 -0.0109137 -0.0939663 0.146123 
475 1 -0.0394606 -0.0338496 0.0225102 0.0566537 
4119 2 0.219425 -0.110146 -0.0985127 0.264545 
576 1 -0.157185 0.0196047 0.0562708 0.168101 
507 1 0.0672372 -0.0845661 0.0149875 0.109073 
248 1 0.0717667 -0.0450677 -0.0132103 0.0857675 
3597 2 -0.0745942 0.065539 0.0916126 0.135102 
539 1 0.0180912 -0.00430439 0.0718276 0.0741959 
63 1 0.0703013 0.0185134 0.0889235 0.114858 
57 1 -0.0572557 -0.0237167 0.0143772 0.0636192 
854 1 -0.0236968 0.0505434 0.0151327 0.0578375 
668 1 0.109299 -0.125589 -0.116676 0.203303 
385 1 -0.101165 -0.235892 0.0496415 0.261426 
752 1 0.0295544 0.0441214 -0.00962325 0.0539701 
3650 2 -0.0156184 0.145092 -0.0389104 0.151028 
3736 2 -0.0877229 -0.156586 0.00776889 0.179652 
254 1 -0.127353 -0.151779 0.00387598 0.198168 
3637 2 -0.0101969 0.00496253 0.0986002 0.0992502 
731 1 0.00522718 -0.0137093 -0.0368994 0.0397094 
2304 1 0.106273 -0.113847 -0.0479168 0.162945 
610 1 -0.159732 0.0061999 -0.112435 0.195434 
292 1 -0.127832 0.0143979 0.0107274 0.129087 
313 1 -0.117427 0.0102462 0.0392924 0.124249 
2133 1 0.00995128 -0.136726 -0.0126156 0.137667 
646 1 -0.105703 -0.0264479 -0.0786479 0.134381 
271 1 0.0126746 0.0945657 0.0678191 0.117059 
584 1 -0.049433 0.096296 -0.097939 0.145975 
3649 2 -0.0978277 0.0370488 0.038981 0.111635 
1148 1 -0.0354029 0.113797 0.140646 0.184349 
779 1 -0.0726443 -0.0606052 0.000545701 0.094607 
621 1 -0.107107 0.0177051 0.0686001 0.128419 
16 1 -0.0380585 0.0236028 0.140905 0.14785 