ITEM: TIMESTEP
74
ITEM: NUMBER OF ATOMS
4320
ITEM: BOX BOUNDS pp pp pp
0.0000000000000000e+00 1.9309999999999999e+01
0.0000000000000000e+00 1.9309999999999999e+01
0.0000000000000000e+00 9.6549999999999994e+00
ITEM: ATOMS id type c_displacement[1] c_displacement[2] c_displacement[3] c_displacement[4] 
4012 2 0.037127 -0.0728833 -0.0610257 0.102052 
2361 1 -0.0463866 -0.0884359 -0.119295 0.155576 
79 1 0.0240546 -0.062661 -0.0263125 0.0720928 
781 1 0.055518 0.0157971 0.152404 0.162968 
461 1 0.0174882 0.0706941 0.0382265 0.0822482 
3704 2 0.018846 -0.101684 0.0255585 0.106528 
629 1 -0.0350675 0.108422 0.0417464 0.121358 
1571 1 0.0262593 -0.0454045 -0.0433061 0.0680187 
58 1 0.0676199 0.147724 0.0503686 0.170093 
2372 1 -0.0649855 -0.0325945 -0.0227077 0.0761654 
372 1 0.033106 -0.0919065 -0.0129444 0.0985412 
3504 2 -0.0497536 -0.0817351 0.0487825 0.107405 
4130 2 0.0714547 -0.0192471 -0.106929 0.130038 
1262 1 0.0500745 0.0448178 -0.0509664 0.0843426 
907 1 -0.11747 -0.0536279 -0.140923 0.19114 
3659 2 -0.00433309 0.112002 -0.0838451 0.139976 
1298 1 0.0312339 0.0762416 -0.107066 0.135098 
1716 1 0.0601427 0.0461623 -0.0697595 0.103027 
1182 1 0.0387506 0.0371088 -0.0494348 0.0729553 
683 1 0.00133527 -0.0621852 0.0300827 0.0690924 
1958 1 -0.0430299 -0.0326578 0.0125229 0.055452 
1554 1 0.0465711 -0.0919851 -0.0785885 0.129639 
1037 1 0.00712095 -0.113482 0.0120619 0.114343 
749 1 -0.0612633 -0.130808 0.0080765 0.144669 
3628 2 0.0386799 0.0542784 -0.00769209 0.0670928 
946 1 -0.099261 -0.0421837 -0.00881242 0.108212 
2232 1 -0.0692552 -0.160217 -0.104729 0.203553 
7 1 0.0215081 -0.0522854 0.0487234 0.0746346 
501 1 -0.00554981 -0.00601297 -0.0298782 0.0309784 
179 1 -0.0444334 -0.0161603 0.0259324 0.0539256 
714 1 -0.123474 0.0080634 0.0674432 0.140924 
4166 2 -0.00922143 -0.0822195 0.115613 0.142167 
276 1 -0.0309295 -0.0672715 0.0912237 0.11749 
767 1 -0.00343363 -0.0203592 0.0246876 0.0321832 
3890 2 -0.174735 -0.0457962 -0.0712016 0.194163 
6 1 0.0231951 0.179189 0.00508476 0.180756 
2086 1 0.0550207 0.0220891 0.0247085 0.0642317 
224 1 0.133929 -0.0672029 0.0082012 0.150069 
3660 2 0.00268157 -0.0297449 0.0925162 0.0972173 
596 1 -0.0827601 -0.0135546 -0.0194622 0.0860914 
1214 1 0.0697478 -0.0534014 -0.0878564 0.124239 
3686 2 -0.0184055 0.00243077 0.0478037 0.0512822 
427 1 -0.13864 0.0531646 0.0757141 0.166674 
350 1 0.0287003 0.0660846 -0.0812305 0.108578 
85 1 -0.0419851 0.0593667 0.0898436 0.115581 
598 1 0.0375696 -0.12113 0.0757401 0.147717 
3554 2 0.0822794 -0.0263726 -0.0407412 0.0955262 
29 1 -0.198562 0.0709681 -0.0380545 0.21427 
464 1 0.0459709 -0.016985 -0.138138 0.146574 
3619 2 -0.0811792 0.0262379 0.132033 0.157198 
12 1 -0.0618796 -0.0198034 -0.0839944 0.10619 
364 1 -0.150269 -0.0279699 -0.0805201 0.172762 
1849 1 -0.0940762 -0.0866409 -0.100459 0.162631 
3663 2 -0.201165 0.0626975 -0.0248357 0.212167 
3517 2 0.0107976 0.0113125 0.141732 0.142592 
25 1 0.223801 0.0348069 -0.0722633 0.23774 
4163 2 0.00674467 -0.0398613 -0.0168677 0.0438056 
399 1 0.0581049 0.0448954 -0.0313917 0.0798575 
4265 2 -0.052136 0.0678774 0.115838 0.144027 
527 1 -0.00960495 0.0920109 -0.0407595 0.101092 
200 1 0.0553169 0.0456264 0.123858 0.143118 
1951 1 0.124115 0.0941251 0.0128714 0.1563 
644 1 0.029465 -0.0364065 0.0421651 0.0630199 
193 1 0.0371762 0.0665742 0.0661282 0.100931 
550 1 0.0521671 -0.0198701 -0.00654027 0.056205 
69 1 0.0262499 -0.0499876 -0.0136681 0.0580916 
842 1 0.00232909 0.0329341 -0.0314011 0.0455643 
578 1 0.0298952 -0.0528994 0.00264474 0.0608199 
172 1 -0.0365243 -0.024846 0.0444804 0.0626886 
381 1 -0.0331249 -0.0188011 0.0250253 0.0455742 
3524 2 0.0303809 -0.0270632 0.0854779 0.0946672 
688 1 -0.0292702 0.120504 0.0121049 0.124597 
3651 2 -0.052551 0.0394082 0.0852092 0.107588 
2367 1 0.0392209 0.0163314 -0.0693592 0.0813369 
1244 1 -0.123906 -0.027505 -0.00341188 0.126968 
796 1 -0.00560558 0.125955 -0.0461326 0.134255 
691 1 0.0322544 0.00184943 -0.0363921 0.0486637 
421 1 0.0810054 0.0612481 0.0138248 0.102491 
597 1 0.0240749 0.036836 0.034423 0.0558698 
3617 2 0.108387 -0.0292261 -0.0283733 0.115789 
120 1 0.0688327 0.220877 0.115724 0.258683 
769 1 -0.0877184 -0.0543915 0.0325829 0.108234 
2142 1 0.0235565 0.0426997 -0.0230051 0.0539204 
3611 2 0.121645 0.000126422 0.183781 0.220393 
1915 1 0.00143447 0.102009 0.0777468 0.128267 
2140 1 0.0549159 -0.0398831 0.0775133 0.103028 
3828 2 0.0851998 0.0785665 0.0754366 0.138284 
3204 1 -0.0271964 0.0406332 0.0702683 0.0856057 
175 1 0.107791 -0.0386343 -0.0574485 0.128109 
2011 1 0.191616 0.108865 0.0389151 0.223791 
75 1 -0.0444515 0.132952 -0.0573283 0.151455 
547 1 0.00884616 -0.0195851 -0.14136 0.142985 
4316 2 -0.086698 0.080591 -0.096276 0.15258 
559 1 0.0133608 0.0310271 -0.042818 0.0545397 
717 1 0.004082 0.0732689 -0.0877962 0.114425 
242 1 -0.0140576 -0.0389068 0.122991 0.129762 
3510 2 -0.127928 0.00696474 0.171601 0.214152 
130 1 0.107526 0.00501823 0.0904085 0.140573 
143 1 0.0277198 0.0845244 -0.0408792 0.0978972 
202 1 -0.142893 -0.122249 -0.0491227 0.194361 
182 1 -0.143879 0.0670794 0.0507097 0.16665 
84 1 0.0336866 0.0106265 0.000961917 0.035336 
3633 2 -0.0564969 -0.0207728 -0.0284959 0.066599 
35 1 -0.171553 0.038547 0.138301 0.223704 
3612 2 0.00477954 0.035525 0.0276472 0.0452685 
40 1 0.115233 0.1081 0.0897464 0.181711 
4005 2 0.0834962 -0.0874834 0.0746715 0.142129 
718 1 -0.112493 -0.00929165 -0.0445012 0.121332 
134 1 0.0144788 0.0345938 0.0955341 0.102631 
511 1 -0.0848324 -0.0348609 -0.000183487 0.0917162 
757 1 -0.021566 0.184401 0.00438812 0.18571 
3555 2 -0.0660204 0.104398 0.0706525 0.1423 
3481 2 -0.00880484 -0.0390685 -0.0448346 0.0601167 
135 1 -0.0256464 -0.0418304 -0.0942545 0.106261 
369 1 0.107458 -0.0431136 0.00546706 0.115913 
2148 1 -0.0756717 -0.0713226 0.0817247 0.132257 
3462 2 0.0496431 -0.0661218 -0.163462 0.183184 
1914 1 -0.00561544 0.0076281 -0.0450814 0.0460657 
3661 2 0.0988571 -0.140401 -0.0090924 0.171953 
1871 1 0.0117198 0.0412016 -0.0334231 0.0543326 
320 1 -0.0910023 -0.0821722 -0.0567258 0.135098 
582 1 -0.0778812 -0.0897766 -0.043304 0.126493 
766 1 -0.0149855 0.0248415 -0.0407231 0.0500004 
3552 2 0.0591018 0.0106182 -0.0235233 0.0644912 
2290 1 -0.00647329 0.0682864 0.0253143 0.0731146 
1794 1 -0.0545627 0.119974 0.0694066 0.148957 
753 1 -0.0203551 0.0141544 0.0546918 0.0600489 
396 1 0.0368806 -0.010778 0.17562 0.179774 
496 1 0.0168431 -0.0562111 -0.0885774 0.106251 
480 1 -0.0400877 -0.0747726 0.105112 0.135079 
253 1 0.0657581 -0.00755762 -0.0677755 0.0947352 
4033 2 0.00199311 -0.00146705 -0.0609647 0.0610149 
347 1 -0.0185113 -0.00833889 -0.112835 0.114647 
586 1 -0.100529 0.0331307 -0.0956228 0.142644 
3671 2 -0.0380088 0.0208547 -0.0361649 0.0564578 
37 1 0.085857 -0.174272 -0.0488626 0.200324 
782 1 0.0361179 -0.140357 -0.0685678 0.160331 
481 1 0.109449 -0.073471 -0.0641173 0.146588 
392 1 -0.0191173 0.0155147 -0.0830191 0.086593 
333 1 0.027667 -0.0279046 -0.0271527 0.047764 
342 1 -0.0201605 -0.0635123 -0.0654911 0.0934309 
1179 1 0.0257109 -0.0896496 -0.0728267 0.118329 
517 1 0.0432749 -0.0942935 -0.0295383 0.107873 
1824 1 0.0269099 -0.0451519 0.0540395 0.0753864 
34 1 0.140584 -0.0283909 0.044636 0.150207 
398 1 -0.0122959 -0.0555651 -0.0751809 0.0942912 
170 1 -0.0616592 -0.0562027 -0.0391033 0.0921394 
235 1 0.0470313 -0.0637989 0.0858788 0.116865 
3852 2 -0.0599868 0.00526132 -0.0149947 0.0620559 
816 1 0.0469417 -0.0607747 -0.127201 0.148584 
3931 2 -0.173544 -0.110896 0.0681561 0.216935 
274 1 -0.0158364 -0.0733199 -0.0521007 0.0913295 
30 1 -0.0134866 -0.0690139 -0.0316708 0.0771223 
2066 1 0.0948068 -0.0312551 0.155976 0.185186 
1082 1 -0.0371757 -0.154014 0.147906 0.216745 
1372 1 0.00984579 -0.0520443 0.104347 0.117021 
1265 1 0.0391854 -0.0219184 -0.0439216 0.0628094 
601 1 -0.0476377 0.0690457 0.0120388 0.0847442 
540 1 -0.0714923 -0.12473 -0.0240644 0.145767 
589 1 -0.0328523 0.117903 0.152357 0.195431 
958 1 0.133327 -0.0181536 0.0706242 0.151965 
504 1 -0.0728183 0.0795265 -0.0349857 0.113362 
1349 1 -0.158654 -0.0176365 -0.0328008 0.162966 
9 1 0.0341039 -0.126757 -0.0165975 0.13231 
149 1 -0.0245884 0.0279414 -0.00241274 0.0372979 
163 1 -0.010929 -0.238929 0.0801941 0.252264 
4247 2 0.049628 -0.10752 -0.086355 0.146563 
1584 1 0.175661 -0.00396124 -0.0614456 0.18614 
3570 2 -0.042519 -0.113086 -0.0694925 0.139376 
237 1 0.00190524 0.0683959 0.119249 0.137484 
490 1 0.0465473 -0.122323 0.0116927 0.131401 
50 1 0.0170295 0.0216643 0.0218856 0.0351898 
152 1 0.107781 -0.00844723 -0.180212 0.210153 
3652 2 -0.0786509 -0.0585034 -0.0153646 0.0992204 
3823 2 0.0912304 0.0813312 -0.167875 0.207653 
902 1 -0.00588544 0.0555611 0.0143029 0.0576737 
3574 2 -0.0121814 0.0438633 -0.02998 0.0545085 
770 1 -0.0151073 -0.0403662 -0.0769722 0.0882178 
154 1 -0.067452 -0.0666339 -0.00768435 0.0951257 
116 1 0.0893394 -0.046903 0.109592 0.148969 
710 1 -0.0856421 -0.162901 -0.0893307 0.204576 
1956 1 -0.0728964 -0.0187472 0.0170362 0.0771724 
1810 1 -0.112211 -0.00271335 0.0200157 0.114014 
2072 1 -0.0511888 -0.0303791 -0.0432776 0.0735944 
1649 1 -0.0618883 0.00222636 -0.118476 0.133685 
186 1 -0.0865568 0.0850916 0.0596863 0.135259 
1063 1 -0.17951 0.171149 -0.146869 0.288248 
432 1 -0.1785 0.0501375 -0.125421 0.223845 
2495 1 0.0071384 -0.110448 0.0222252 0.112888 
3896 2 -0.0402068 -0.0146984 -0.11333 0.121146 
460 1 0.0863122 -0.0438228 -0.0282996 0.100852 
913 1 0.041295 0.00730153 -0.0124435 0.0437428 
1068 1 -0.0894819 0.0233454 -0.0647302 0.112881 
265 1 -0.089718 -0.0456566 -0.0768386 0.126641 
1287 1 0.0234296 0.0651382 0.0170905 0.0713023 
3799 2 0.138011 -0.0942411 -0.127588 0.210255 
554 1 0.130281 -0.0661481 0.0181944 0.14724 
1414 1 0.00438777 0.0637731 -0.0554018 0.0845909 
213 1 0.00968433 0.0156335 0.0626187 0.0652632 
341 1 -0.119612 -0.0330618 -0.00140148 0.124105 
3682 2 0.0106528 0.0993265 -0.0569721 0.115 
754 1 -0.0738529 0.00653986 0.0444985 0.0864704 
112 1 -0.0287005 0.0424317 0.00110358 0.0512385 
1041 1 -0.0100426 0.00304898 -0.0164615 0.0195226 
119 1 0.042252 0.0855342 -0.0269268 0.0991281 
3998 2 0.0253339 -0.0372407 0.165723 0.171735 
995 1 -0.0588293 0.0344381 0.00265136 0.0682195 
4128 2 0.0692465 -0.01867 0.232848 0.243643 
8 1 0.0129695 0.0749593 0.0110374 0.0768696 
94 1 0.0500273 0.0357455 -0.0172247 0.0638527 
48 1 0.0714974 -0.0269655 0.0975316 0.123901 
437 1 0.0600358 -0.0455602 -0.0410539 0.0858222 
3866 2 0.0674213 0.00884044 -0.0554007 0.0877099 
2206 1 0.0227473 0.0182145 -0.0133286 0.0320446 
3490 2 -0.0567725 0.0191422 -0.0929981 0.110626 
3072 1 -0.0335491 -0.110048 0.0577817 0.128743 
3002 1 0.0978072 0.0694108 -0.00948052 0.120308 
92 1 0.0367763 0.0961933 0.0663322 0.122497 
335 1 0.0159012 0.0509951 -0.0290682 0.0608137 
2192 1 0.0034904 0.0331551 0.142783 0.146624 
1186 1 0.0322164 -0.0352371 -0.0303795 0.0565903 
1114 1 0.0571467 -0.0649278 0.0215835 0.0891471 
1821 1 -0.109038 -0.0780271 -0.050056 0.143119 
1922 1 0.0560641 -0.0862741 0.0569584 0.117604 
451 1 -0.114637 -0.0279966 -0.0171135 0.119241 
3960 2 -0.0161841 -0.0373434 0.0557257 0.0690058 
100 1 -0.0575592 -0.0292529 -0.0544368 0.0844521 
1180 1 0.0430947 -0.0508713 -0.101823 0.121709 
165 1 0.0721441 -0.0071422 -0.038918 0.0822824 
388 1 -0.0603241 -0.00961461 -0.10079 0.117856 
3742 2 0.0158346 -0.0552871 0.0159559 0.0596824 
323 1 -0.113901 0.112241 0.0302415 0.162745 
288 1 -0.114528 0.0226757 -0.0314598 0.120915 
3942 2 -0.105543 0.116149 0.109207 0.191196 
66 1 0.0533186 0.027973 0.083321 0.1028 
340 1 0.0848881 0.0696465 -0.0435901 0.118139 
138 1 -0.0202563 -0.00236939 0.0495224 0.0535575 
879 1 -0.047416 -0.0331365 -0.0539549 0.079104 
3808 2 0.0748037 0.172729 -0.0446938 0.193465 
834 1 0.0791054 0.0308425 -2.74728e-05 0.0849054 
18 1 -0.0713215 -0.0644065 -0.0926872 0.133514 
3679 2 0.105526 -0.0605913 -0.0814846 0.146447 
52 1 0.00826519 -0.148403 0.0203737 0.150023 
407 1 0.0218234 0.0816089 -0.0758985 0.113564 
360 1 0.068629 -0.0196295 -0.0562539 0.0908833 
2885 1 -0.0665211 -0.00590306 0.00118398 0.066793 
3526 2 -0.0568533 -0.231859 -0.0234231 0.239874 
310 1 -0.0951812 -0.0431329 -0.051335 0.116427 
326 1 0.106542 -0.0319602 0.0863701 0.140828 
227 1 -0.05236 -0.0674571 -0.0700907 0.110475 
2068 1 -0.109131 0.00286058 -0.165971 0.198656 
456 1 0.091665 -0.0148487 0.0575308 0.109237 
279 1 0.026906 0.0519916 0.151302 0.162233 
305 1 0.00447777 0.0302563 -0.0070211 0.0313813 
49 1 0.00839091 0.0531059 0.0236952 0.0587546 
3512 2 0.0369057 -0.157832 0.0271997 0.164356 
11 1 -0.0761683 -0.179929 -0.00175152 0.195395 
189 1 -0.127402 0.10407 0.0101068 0.164815 
2271 1 -0.0897309 -0.085068 -0.0551644 0.135393 
319 1 -0.140407 -0.0611681 0.0188165 0.154304 
3566 2 0.0565269 0.0321251 -0.0612569 0.0893293 
71 1 0.0308615 -0.00509973 0.0557282 0.0639068 
1560 1 -0.0466158 0.0334227 0.0586189 0.082014 
190 1 -0.0803495 0.00855515 0.126558 0.150154 
123 1 0.0808724 -0.0104312 0.107442 0.134882 
27 1 -0.0205421 -0.0332691 0.00571396 0.0395153 
162 1 0.0145941 0.052941 -0.0641996 0.0844827 
255 1 -0.134185 -0.0198123 0.00227271 0.135659 
304 1 -0.0520946 -0.00714375 -0.0903355 0.104525 
321 1 0.0217205 -0.0276414 0.138251 0.14265 
682 1 -0.107212 0.00202911 0.00266443 0.107264 
3469 2 0.0132159 -0.0018566 -0.0802826 0.0813843 
3539 2 0.00997079 -0.0017008 0.10909 0.109558 
128 1 0.0269357 -0.0868596 -0.101688 0.13642 
3562 2 0.111918 0.0129775 0.141413 0.180809 
560 1 -0.190768 -0.0610706 -0.0810355 0.216076 
212 1 -0.00538131 0.0536891 -0.0762233 0.0933888 
355 1 0.00733881 0.0413787 0.0705976 0.0821588 
156 1 0.00664182 0.0686479 0.053858 0.0875062 
3620 2 0.080311 -0.0663468 0.00357715 0.104233 
1823 1 0.205855 -0.173643 -0.0870494 0.283029 
1805 1 -0.15255 0.0225947 0.103268 0.185597 
2599 1 -0.0843444 0.0530987 0.109524 0.148084 
327 1 0.12587 0.0446628 0.0548745 0.144392 
137 1 0.0754777 0.0461699 -0.0215445 0.0910643 
2334 1 0.0128751 0.00598399 0.0249981 0.0287486 
3698 2 0.0123608 -0.0509183 -0.030239 0.0604968 
555 1 -0.0286034 -0.0388911 -0.0268186 0.055226 
4178 2 -0.0148467 -0.0571411 0.0261207 0.0645587 
290 1 0.00830078 -0.0144096 -0.0400876 0.0433999 
284 1 0.0274909 0.0426808 0.00835971 0.0514518 
3543 2 -0.0788925 -0.0848998 -0.00734093 0.116129 
366 1 0.0290627 -0.00412612 0.114381 0.118087 
55 1 0.0298528 0.050585 -0.000160048 0.0587372 
273 1 -0.0343652 0.0160297 -0.101645 0.108488 
3468 2 0.109185 -0.0258366 0.139058 0.178679 
316 1 0.15611 0.0540756 0.134143 0.212812 
81 1 -0.0486566 -0.0474957 0.00174574 0.0680173 
322 1 0.0504407 -0.0495186 0.05511 0.0896296 
239 1 0.0422305 -0.0136678 -0.050821 0.067476 
734 1 -0.00796415 -0.0590407 -0.069916 0.0918557 
384 1 0.0200365 -0.095474 -0.100046 0.139735 
3476 2 0.0149152 0.0921753 0.0138155 0.0943908 
311 1 -0.0451401 -0.109835 -0.0340756 0.123542 
3471 2 0.0372774 0.0365289 0.069535 0.086943 
1938 1 0.0777132 -0.0448356 0.0179705 0.0915015 
139 1 0.175284 0.0233423 -0.05107 0.184058 
727 1 0.0940438 -0.129847 -0.0268098 0.162553 
1885 1 -4.48833e-05 0.054423 -0.0161324 0.0567637 
2184 1 0.21281 0.0879901 -0.0495645 0.235557 
2494 1 -0.154996 0.0235414 -0.110991 0.192086 
2091 1 0.00739598 0.0246904 -0.0621769 0.0673074 
281 1 0.0200243 0.101652 0.1386 0.173043 
863 1 -0.0309545 0.0719952 -0.0793533 0.111528 
176 1 -0.0583442 0.0345578 -0.093815 0.115756 
3710 2 0.00928059 0.0615208 -0.0645604 0.0896604 
3572 2 -0.043359 -0.117966 -0.104363 0.163363 
4197 2 -0.0234786 0.0671234 -0.111336 0.132107 
343 1 -0.0593749 -0.0325731 -0.101396 0.121933 
282 1 -0.0459834 -0.0108334 -0.0746603 0.0883516 
1038 1 0.0217947 0.0562377 0.0848017 0.104063 
408 1 0.18872 -0.0307458 0.0209611 0.192354 
412 1 0.109708 -0.0174359 0.00995408 0.11153 
820 1 0.12219 0.0466857 0.120935 0.178144 
585 1 -0.0833919 -0.0279214 -0.115474 0.145148 
3609 2 0.0834804 -0.132455 0.0402259 0.161652 
719 1 -0.00932791 0.0107351 -0.0143211 0.0201828 
608 1 0.067188 0.106672 0.103296 0.162982 
106 1 0.012938 0.0430263 0.0329636 0.0557248 
1047 1 -0.112903 -0.0577352 -0.0430043 0.133902 
3573 2 0.0543091 0.0575629 -0.0747743 0.108877 
751 1 -0.00941638 -0.0299975 -0.0805973 0.0865126 
259 1 0.0665511 -0.00936585 -0.0190499 0.0698546 
245 1 -0.045462 -0.0294062 0.0150105 0.0561857 
613 1 -0.0506775 -0.105513 0.0842457 0.144217 
4296 2 -0.0140022 0.0578016 0.0148422 0.0612974 
272 1 -0.104379 -0.140756 -0.0464658 0.181291 
4239 2 -0.158634 -0.0860982 -0.0894935 0.201462 
88 1 0.0753157 0.108037 0.104649 0.168213 
4 1 0.0607153 0.00305125 -0.0590504 0.0847503 
361 1 0.137294 0.0876872 -0.152022 0.222821 
358 1 -0.0591993 0.0353195 0.0791991 0.104998 
194 1 0.0370492 0.0351978 -0.103522 0.115448 
2373 1 0.0172707 -0.00162039 -0.0743635 0.0763599 
1982 1 0.0575367 0.0290212 0.0446637 0.0784063 
3953 2 0.019253 0.0636804 0.0962509 0.117005 
414 1 0.0236357 0.0397526 -0.136725 0.144336 
3186 1 0.0858464 -0.0375298 -0.0243463 0.0968031 
177 1 0.0734997 -0.0446851 -0.00362426 0.0860935 
1962 1 -0.0182659 0.106505 0.166925 0.198849 
706 1 -0.00504255 0.058393 -0.0129976 0.0600342 
1544 1 0.0271769 -0.155542 0.0668041 0.171448 
4160 2 -0.0173789 0.0785748 -0.0252948 0.0843555 
19 1 -0.0651265 0.0828587 -0.092022 0.139911 
3624 2 -0.0495617 -0.00780008 -0.081648 0.0958311 
115 1 0.0512859 -0.013383 -0.117548 0.128945 
1102 1 -0.0528563 -0.0369205 0.0789343 0.101919 
2048 1 0.123043 0.00227515 0.00540886 0.123183 
649 1 0.0266036 0.0938469 -0.0183932 0.0992638 
113 1 -0.0181947 -0.0668469 0.0248286 0.0735935 
1150 1 -0.00752001 0.00233754 0.0365259 0.0373652 
620 1 0.03563 -0.0971402 0.0031784 0.103517 
739 1 0.00558564 -0.0338995 -0.109064 0.114348 
2412 1 -0.0154792 0.0164379 -0.00323439 0.0228095 
3746 2 0.106413 0.0240045 -0.181799 0.212016 
1225 1 -0.022377 0.00718225 0.141904 0.143837 
241 1 0.125963 -0.0383913 0.00129099 0.13169 
83 1 0.0226985 -0.0324415 -0.00412081 0.0398077 
1006 1 0.0585425 0.0103197 -0.0140398 0.0610806 
4046 2 -0.0844043 -0.0825803 -0.0270611 0.121144 
96 1 -0.0392469 -0.161862 0.0620386 0.177731 
411 1 0.138402 0.0446638 0.0527695 0.154708 
2454 1 -0.0506113 -0.00310637 0.0585922 0.0774867 
404 1 -0.0483994 0.0890124 0.078787 0.128348 
226 1 0.0401885 -0.01635 0.0514255 0.0672832 
534 1 0.0563402 -0.0484814 0.12408 0.144639 
3538 2 -0.0775749 0.0784208 -0.0579094 0.124584 
761 1 0.0477392 -0.0442993 0.0721751 0.0972148 
246 1 0.0332698 -0.0195601 -0.00778001 0.0393702 
2229 1 -0.065691 -0.143948 -0.0366605 0.16242 
146 1 0.0123876 -0.126531 -0.0666479 0.143546 
3608 2 -0.0100867 -0.00489529 0.0286239 0.0307413 
503 1 0.0357164 -0.0158576 -0.00415775 0.039299 
505 1 0.136564 -0.0672894 0.0240496 0.15413 
1430 1 -0.0397984 -0.0680331 -0.0775111 0.110546 
97 1 -0.122868 0.0600934 -0.0983616 0.168472 
1723 1 0.0243255 -0.0142433 -0.0934312 0.0975909 
3561 2 0.0496663 0.199543 -0.0655778 0.215834 
20 1 -0.0693787 -0.0187928 0.0210923 0.0749096 
263 1 -0.0526193 0.159749 -0.0110922 0.168557 
817 1 0.103033 -0.0876736 0.0204304 0.13682 
1034 1 -0.011974 0.0464027 0.0105507 0.0490704 
353 1 0.0193303 -0.0759609 0.191794 0.207193 
1260 1 0.0444236 0.117828 -0.0580944 0.138679 
998 1 0.0460969 0.131876 -0.0844773 0.163256 
1932 1 0.132398 -0.118135 -0.0506562 0.184529 
36 1 0.0971426 -0.186465 -0.0861493 0.227217 
38 1 0.0385009 0.054906 -0.0251849 0.0716328 
3130 1 -0.0434901 -0.0402844 -0.0562189 0.0816994 
1973 1 0.0999096 0.075131 0.137209 0.185615 
307 1 0.094909 -0.0263669 0.0285606 0.10256 
2714 1 0.0681556 0.0228958 0.0115849 0.0728259 
28 1 0.0815571 0.0596701 -0.0127485 0.101856 
1937 1 0.00850622 0.0761228 -0.0670037 0.101767 
562 1 -0.0690363 -0.109868 -0.0224512 0.131686 
3011 1 -0.018379 0.0163212 -0.0201393 0.0317767 
410 1 0.0701299 -0.121232 0.0472764 0.147819 
693 1 0.0891218 0.0728692 0.202406 0.232854 
367 1 0.0025698 0.00733592 0.00397168 0.00872891 
318 1 0.0345048 0.035566 -0.14117 0.149614 
735 1 0.15141 0.014425 0.0266332 0.15441 
600 1 0.00509543 0.0143585 0.0322499 0.0356677 
3590 2 0.0386437 0.104569 0.0559736 0.124744 
3636 2 0.0567786 -0.0668483 0.0301591 0.0927473 
26 1 -0.149761 0.0394502 0.0824328 0.175442 
1199 1 0.0232635 0.0962111 -0.0615695 0.11657 
614 1 0.020061 0.0172836 -0.0817924 0.0859719 
459 1 -0.0727863 -0.066156 -0.0615754 0.116043 
3645 2 0.0638011 0.122041 0.0638121 0.151778 
574 1 0.0803157 -0.0919574 0.125911 0.175386 
780 1 0.145308 0.0213051 0.0125037 0.147392 
161 1 -0.118165 -0.0563957 0.129566 0.184204 
309 1 0.106095 0.089302 -0.0214505 0.140325 
365 1 0.0656861 -0.142337 -0.0520599 0.165181 
191 1 -0.0781409 0.100531 -0.016201 0.128355 
1766 1 -0.0778472 -0.0322656 -0.0151342 0.0856171 
2775 1 0.108094 -0.0530137 -0.0546332 0.13221 
1030 1 0.152308 -0.1361 -0.00711715 0.204381 
1505 1 0.170079 0.178773 0.12821 0.278072 
3872 2 -0.0586864 0.0244704 -0.007413 0.0640144 
580 1 -0.0289994 -0.0321172 0.0180205 0.0468745 
2054 1 -0.0384572 -0.0965882 -0.0309046 0.108459 
2064 1 0.0892389 0.0162983 -0.0169668 0.0922881 
529 1 -0.000660495 0.0348166 -0.0758375 0.0834503 
402 1 -0.0281341 0.0741778 0.0200665 0.0818324 
124 1 -0.0850706 -0.0949576 0.044147 0.134918 
744 1 0.113306 -0.0231861 0.0631274 0.131761 
185 1 0.058868 -0.0324741 0.0838107 0.107444 
315 1 0.0154827 -0.0293032 -0.029059 0.0440774 
655 1 -0.00134997 -0.0902999 0.174931 0.196867 
765 1 0.00686295 0.0325587 0.0306498 0.0452392 
140 1 -0.00405172 0.0780421 -0.175979 0.19255 
59 1 -9.44283e-05 -0.0119552 0.086949 0.0877671 
54 1 0.0183579 0.0677555 0.030108 0.0763826 
3506 2 -0.0385034 0.130957 -0.124398 0.184681 
666 1 0.0150836 -0.198933 0.0705346 0.211605 
43 1 0.0933405 0.0698507 0.100568 0.153966 
334 1 -0.0788071 -0.0633879 0.0639663 0.119667 
267 1 0.135663 0.0470592 -0.139036 0.199875 
99 1 0.0814503 0.120569 0.0749024 0.16365 
1189 1 -0.120276 -0.0116688 -0.1866 0.22231 
201 1 -0.0408754 -0.0518095 -0.050032 0.0828145 
380 1 -0.00208933 0.102289 -0.144846 0.177335 
1777 1 -0.00107591 -0.0172205 -0.057203 0.0597486 
2597 1 0.228386 -0.0100513 0.0524192 0.23454 
2484 1 0.147422 -0.0324017 -0.0117569 0.151398 
308 1 0.0162661 -0.0023683 -0.0819561 0.0835883 
3918 2 -0.0297829 0.145503 0.0906367 0.173992 
89 1 -0.103713 0.037215 -0.00420168 0.110268 
300 1 -0.0233241 -0.0129688 0.0183643 0.0323953 
3582 2 0.059934 -0.013492 -0.0424599 0.0746791 
712 1 -0.0486559 0.0928474 -0.0487938 0.115624 
3836 2 -0.0219259 0.0808034 -0.0510067 0.0980389 
268 1 -0.0306895 -0.0106235 0.049881 0.0595216 
788 1 -0.025203 0.123769 -0.0651434 0.142119 
4091 2 -0.0220976 0.142145 -0.0150346 0.144635 
371 1 0.00162766 0.0422158 0.124967 0.131915 
3505 2 0.0888027 -0.0133981 0.00507454 0.089951 
266 1 0.139646 -0.0645218 -0.0967385 0.181721 
3571 2 0.0103712 -0.0726548 0.0757765 0.105491 
637 1 -0.0248775 -0.00690668 -0.0870971 0.0908432 
157 1 -0.0732306 -0.0322826 0.0893303 0.119937 
257 1 -0.00722629 0.0075535 0.024123 0.0262905 
571 1 -0.00849097 0.0465709 0.021102 0.051829 
665 1 -0.153231 -0.0439797 0.154078 0.221707 
448 1 -0.163042 -0.119436 0.0119802 0.202463 
827 1 0.0699488 0.0853587 0.0353622 0.115885 
3475 2 0.0985921 0.0386515 0.0581699 0.120823 
73 1 -0.0408814 0.0671441 -0.00262952 0.0786545 
373 1 0.103238 0.00748093 0.0928713 0.139065 
247 1 0.0354326 -0.017304 -0.0703569 0.0806535 
107 1 0.060188 0.0595971 -0.0790344 0.115848 
675 1 -0.0735658 0.0571212 -0.112114 0.145754 
434 1 0.0624555 0.0709368 -0.0343643 0.100567 
159 1 -0.0561167 0.0900719 -0.0407206 0.113667 
32 1 0.0661566 0.124679 -0.00839844 0.141393 
3579 2 0.0833454 -0.0336258 -0.124231 0.153331 
394 1 -0.0637922 0.00788917 0.0655412 0.0918005 
260 1 -0.00735845 0.0636206 0.0340147 0.0725171 
3972 2 -0.0792103 0.0552098 0.0805926 0.125768 
1801 1 -0.0473917 0.041473 0.0394003 0.0742857 
2122 1 0.00969035 0.0352466 0.177342 0.18107 
1966 1 0.00712237 -0.0704674 -0.100857 0.123242 
291 1 -0.0110911 0.00786235 0.0518635 0.0536158 
2047 1 0.0910806 0.0493108 0.0253333 0.106626 
1899 1 0.0434118 0.0588657 -0.00945159 0.0737502 
622 1 -0.0204121 0.143291 -0.0130093 0.145321 
1993 1 -0.00159529 -0.0111811 0.0180401 0.0212839 
62 1 0.012896 0.0351734 0.0626758 0.0730187 
2187 1 -0.0727251 0.0428953 -0.105981 0.135502 
4318 2 0.0910959 0.0251711 0.0169475 0.096017 
44 1 0.00667063 0.0316742 0.0971598 0.10241 
824 1 0.0492241 -0.0166262 0.0806362 0.0959251 
1282 1 0.0233496 0.000292489 0.103789 0.106383 
3626 2 0.151818 0.0953316 -0.0392898 0.183523 
819 1 0.0627053 0.104257 0.0638082 0.137379 
773 1 -0.123687 -0.165721 0.0564165 0.214348 
270 1 -0.0628022 -0.0519216 -0.0523637 0.0968603 
14 1 -0.117038 -0.0569434 0.00279017 0.130185 
3540 2 0.0617805 -0.0468328 0.00884162 0.0780276 
997 1 0.0555389 -0.0554205 -0.0778768 0.110548 
4275 2 -0.0382445 -0.0798707 -0.172257 0.193686 
164 1 0.0219419 0.0455306 0.141607 0.150357 
234 1 0.0454428 -0.00808092 0.0731499 0.0864942 
1125 1 -0.0165089 -0.0336929 -0.0716242 0.0808565 
3985 2 -0.0106927 0.00401503 0.0424391 0.0439492 
328 1 0.0158086 -0.00767255 -0.0385244 0.0423428 
3474 2 0.0309771 0.00392241 -0.0750454 0.0812821 
543 1 -0.0663461 0.00291306 0.0117967 0.0674497 
293 1 0.101269 -0.0776468 0.114591 0.171509 
3458 2 0.117093 -0.0304306 0.108657 0.162614 
390 1 -0.00858573 -0.00292321 -0.115495 0.115851 
3706 2 0.0890031 -0.232226 -0.147397 0.289096 
2169 1 0.0846059 0.0929352 -0.0759213 0.14683 
1786 1 0.0558914 0.00433531 -0.0263269 0.0619334 
1478 1 -0.0353812 0.0640269 0.118495 0.139257 
87 1 0.0279886 0.0118681 -0.0477136 0.0565757 
4090 2 -0.0723991 -0.0346388 0.039096 0.0892747 
142 1 0.0123783 0.0233091 0.015075 0.030394 
1650 1 -0.0832285 -0.0962293 -0.0651972 0.142961 
153 1 0.0664373 -0.0225831 0.0135044 0.0714582 
374 1 0.0249588 -0.0643601 -0.0762497 0.102855 
602 1 0.028893 -0.0662766 -0.122856 0.142551 
1277 1 -0.0627671 0.00487381 0.0331771 0.071163 
76 1 0.0268787 -0.0112411 0.16253 0.16512 
1370 1 0.0560102 -0.0254543 0.0776409 0.0990614 
221 1 -0.0228162 0.0733855 -0.00772189 0.0772375 
604 1 -0.100135 0.0375132 0.0751018 0.130669 
1161 1 -0.0376027 -0.0780945 0.0397858 0.095371 
1718 1 -0.0749377 0.0392757 -0.123521 0.149719 
178 1 -0.0717679 -0.275048 -0.0330186 0.286168 
295 1 -0.171686 -0.0886443 -0.00945707 0.193451 
1472 1 -0.105743 0.000732348 -0.0283296 0.109475 
4159 2 0.000317831 -0.0314876 -0.0211095 0.0379101 
3467 2 0.0946928 -0.00702167 -0.0493157 0.106996 
3531 2 -0.0859504 -0.0952286 0.143288 0.192321 
2720 1 -0.0359128 0.0802292 -0.0744989 0.115224 
1851 1 -0.0236924 0.000541204 -0.00481981 0.0241837 
732 1 0.0275597 -0.0683167 0.0272283 0.0785372 
446 1 -0.299345 0.103181 0.081254 0.326888 
3878 2 0.0698485 0.0805079 -0.0397028 0.113739 
3185 1 -0.182316 -0.00226315 0.0130151 0.182794 
110 1 -0.0936366 0.016154 0.0217769 0.0974834 
2963 1 -0.0432344 0.0377188 -0.0263461 0.0631351 
2608 1 -0.0193774 -0.00775771 0.00454432 0.0213616 
3301 1 0.0380031 0.0201814 0.130535 0.137444 
3759 2 -0.039297 -0.0597339 -0.0392695 0.081575 
4171 2 -0.102926 0.0301973 0.0558486 0.120932 
2118 1 -0.0115036 0.041517 -0.0477891 0.0643412 
1742 1 9.55362e-05 0.00302704 0.0479455 0.048041 
642 1 0.040172 -0.204441 0.00726382 0.208477 
3366 1 -0.0527574 0.025932 0.087548 0.105454 
144 1 0.119513 0.14483 0.00770053 0.187932 
681 1 0.044478 -0.0134466 -0.11081 0.120158 
1666 1 0.0457561 -0.0628158 -0.0398497 0.0873352 
183 1 -0.092487 -0.115461 -0.0428946 0.154029 
694 1 -0.143944 0.0103945 0.0641892 0.15795 
444 1 -0.0608963 0.0418902 -0.13964 0.157995 
869 1 -0.0524723 -0.148766 0.142424 0.21253 
920 1 -0.0570079 -0.140139 0.0191025 0.152492 
53 1 0.0838887 -0.0109051 0.0507584 0.0986542 
1450 1 -0.274874 -0.0238204 -0.0992234 0.293203 
1579 1 0.0426476 -0.0959163 0.0567038 0.119307 
51 1 0.118731 -0.0153187 -0.0580622 0.133052 
4187 2 -0.0995461 -0.0889749 -0.152642 0.202794 
1694 1 0.00694366 -0.123541 0.226974 0.258511 
1590 1 0.0402953 0.014198 -0.0731253 0.0846912 
2005 1 0.057568 -0.0998113 0.122362 0.168074 
736 1 -0.125356 0.0220518 -0.0219447 0.129159 
363 1 0.129287 0.0061588 0.00129217 0.12944 
230 1 -8.45278e-05 0.0145048 0.104947 0.105945 
2538 1 0.0873279 -0.0846285 -0.0345486 0.126419 
357 1 -0.0589358 0.0012005 -0.0531326 0.0793595 
3849 2 0.178418 -0.0559184 -0.128613 0.226938 
4102 2 2.22388e-05 -0.12854 0.0581471 0.14108 
1032 1 0.0721575 0.0454028 0.0652127 0.107335 
78 1 0.00874753 0.0613951 -0.0267185 0.067526 
564 1 0.285114 -0.075355 0.092076 0.308944 
797 1 0.151685 -0.0635279 -0.0259261 0.166482 
1476 1 0.239472 0.0319101 -0.0216768 0.242559 
872 1 -0.0962825 0.0179811 -0.0734195 0.122409 
475 1 0.00193128 -0.0383973 0.00299729 0.0385625 
4119 2 0.272578 -0.127548 -0.104008 0.31841 
576 1 -0.140935 0.0378645 0.0693315 0.161565 
507 1 0.0611001 -0.125756 0.0224355 0.141602 
248 1 0.054678 -0.0427877 -0.0206977 0.0724491 
3597 2 -0.0761585 0.0627069 0.0901818 0.13366 
539 1 0.0102737 -0.0249115 0.0527035 0.0591928 
63 1 0.0698793 -0.00206917 0.115131 0.134694 
57 1 -0.0322707 -0.062108 0.0190801 0.0725455 
854 1 -0.0576853 0.0246758 0.0179889 0.0652694 
668 1 0.0955102 -0.138692 -0.0943687 0.193036 
385 1 -0.0909908 -0.256335 0.0970521 0.288801 
752 1 0.013054 0.0626273 -0.0197908 0.0669646 
3650 2 -0.0107011 0.160052 -0.0773009 0.178063 
3736 2 -0.0903405 -0.180432 0.0414922 0.206007 
254 1 -0.157141 -0.15371 0.0154662 0.220362 
3637 2 -0.0105341 -0.022434 0.0614187 0.0662307 
731 1 -0.0222684 -0.0556077 -0.000427374 0.0599022 
2304 1 0.0928262 -0.148434 -0.00937828 0.17532 
610 1 -0.201986 0.0221197 -0.106429 0.22938 
292 1 -0.14403 0.0202267 -0.00380812 0.145493 
313 1 -0.111013 0.00940271 0.024863 0.114151 
2133 1 -0.00347169 -0.111851 -0.0374857 0.118017 
646 1 -0.10937 -0.036453 -0.0938274 0.148642 
271 1 0.03007 0.114532 0.0528171 0.129659 
584 1 -0.0485529 0.119885 -0.0769984 0.150527 
3649 2 -0.0863674 0.0111975 0.0452463 0.0981424 
1148 1 -0.0397615 0.130342 0.136743 0.193051 
779 1 -0.106063 -0.0721033 0.0303395 0.131791 
621 1 -0.136118 0.0484576 0.0480929 0.15228 
16 1 -0.0383966 -0.00908366 0.1263 0.13232 
3635 2 -0.0674054 -0.229404 0.0432482 0.242982 
790 1 0.0960399 0.0484123 0.114207 0.156877 