ITEM: TIMESTEP
4
ITEM: NUMBER OF ATOMS
4320
ITEM: BOX BOUNDS pp pp pp
0.0000000000000000e+00 1.9309999999999999e+01
0.0000000000000000e+00 1.9309999999999999e+01
0.0000000000000000e+00 9.6549999999999994e+00
ITEM: ATOMS id type c_displacement[1] c_displacement[2] c_displacement[3] c_displacement[4] 
4012 2 -0.0021435 0.000464167 -0.00302679 0.00373785 
2361 1 -0.000629346 0.00687942 -0.00433422 0.00815524 
79 1 -0.00261852 -0.00767678 0.00589374 0.0100263 
781 1 0.0116032 0.00533171 -0.00588502 0.0140604 
461 1 -0.00368882 -0.0103385 0.00271649 0.011308 
3704 2 -0.00531391 -0.00505809 0.00823139 0.0110262 
629 1 -0.00410939 -0.00298281 0.00618738 0.00800424 
1571 1 0.00133827 0.00330071 -0.00686152 0.00773085 
58 1 0.00851412 -0.00139431 0.02078 0.0224999 
1073 1 -0.00351796 -0.00372439 0.00234126 0.00563282 
372 1 0.00175211 0.00557392 -0.00421375 0.00720376 
3504 2 0.00194379 -0.0111588 0.00378293 0.0119418 
4130 2 -0.00626018 -0.00397112 -0.00251944 0.0078299 
1262 1 -5.26807e-05 0.00912888 -0.00807882 0.0121904 
907 1 -0.00792506 -0.00457847 -0.0133401 0.016178 
3659 2 0.00861073 0.0150965 -0.00966113 0.0198844 
1298 1 0.00833788 0.00985066 -0.00440634 0.0136371 
1716 1 -0.000962712 0.0155159 -0.00462921 0.0162204 
1182 1 -0.00401153 0.000569818 0.00468825 0.00619651 
683 1 -0.000900236 -0.00550508 0.00943001 0.0109563 
1958 1 0.00964251 -0.0139494 0.00723333 0.0184359 
1554 1 -0.000818294 -0.00685777 -0.00130659 0.00702892 
1037 1 -0.00682865 -0.0200968 0.00315874 0.0214591 
749 1 -0.0104926 0.00256487 0.00490715 0.011864 
3628 2 0.00822559 0.00717936 0.00460061 0.0118478 
946 1 -0.0056365 0.00430225 -0.00289194 0.00765786 
2232 1 0.0091921 0.0041476 -0.00603039 0.01175 
7 1 -0.0017195 -0.0106164 -0.00442745 0.0116304 
501 1 0.00441177 0.0162889 -0.0110837 0.0201901 
179 1 -0.00107501 3.73137e-05 -0.00908426 0.00914772 
714 1 0.00692097 -0.00323479 0.015661 0.017425 
4166 2 0.000732784 -0.00486474 -0.0130366 0.013934 
276 1 -0.00508351 0.00396929 -0.000173151 0.00645193 
767 1 -0.00652296 -0.000832371 0.0110897 0.0128927 
3890 2 -0.0124593 -0.00207196 -0.00541084 0.0137406 
6 1 -0.00516337 0.0055483 0.00591167 0.00961207 
2086 1 -0.00139977 -0.00101999 0.00688058 0.00709522 
224 1 -0.00335617 -0.000298422 -0.000615237 0.00342512 
3660 2 0.00672133 0.00699664 0.000331841 0.00970769 
596 1 -0.00477065 -0.000878266 -0.00707191 0.00857568 
1214 1 -0.00423772 -0.00431526 0.00179197 0.00630801 
3686 2 0.00530585 0.00477845 -0.00028666 0.00714617 
427 1 -0.00182984 0.00560507 0.00445354 0.00738913 
350 1 0.000157619 0.00907352 0.0038438 0.00985537 
85 1 -0.00316436 -0.000421264 -0.0037948 0.00495895 
598 1 -0.0070132 8.66238e-05 0.010118 0.0123112 
3554 2 -0.000554142 -0.00701188 -0.00101495 0.00710659 
29 1 -0.00121724 0.00905375 0.00466123 0.0102557 
464 1 -0.00975345 0.00359917 0.000369738 0.0104029 
3619 2 0.000861086 0.00216935 0.00924539 0.00953545 
12 1 0.0157096 -0.0177891 0.0115261 0.0263836 
364 1 -0.0085074 0.00710983 0.000254822 0.0110901 
1849 1 -0.00624527 0.000907367 0.0105935 0.0123308 
3663 2 -0.00545982 0.00287859 -0.0147455 0.0159852 
3517 2 0.00750851 0.00343807 0.00121682 0.00834738 
25 1 0.00627039 -0.00695154 0.00226877 0.0096327 
4163 2 -0.00665693 0.00500381 -0.00182812 0.00852613 
399 1 -0.00158442 0.00027312 -0.000772378 0.00178369 
4265 2 0.00158243 0.00985702 -0.0017966 0.0101436 
527 1 -0.0135406 0.0108896 -0.00272739 0.0175889 
200 1 4.23161e-05 -0.00882545 -0.00112749 0.00889728 
1951 1 0.00279794 0.0010878 -0.00253617 0.00392988 
644 1 0.00369341 -0.00490342 0.00909753 0.010975 
193 1 -0.00597215 0.0102304 -0.00240189 0.0120871 
550 1 -0.00130307 -0.00485957 0.0021855 0.00548542 
69 1 -0.00646164 -0.0114759 0.00939009 0.0161748 
842 1 0.00287338 0.00564069 -0.0144713 0.0157953 
578 1 -0.0143234 0.00992629 -0.00501971 0.0181353 
172 1 0.00153455 -0.014181 0.000384455 0.014269 
381 1 -0.00963831 0.015972 -0.00582653 0.0195436 
3524 2 0.0112784 -0.0128683 0.00286716 0.0173498 
688 1 0.00413358 0.0050029 0.00490347 0.00813385 
3651 2 0.00284034 0.00827979 -0.000474456 0.00876627 
2367 1 -0.00689282 -8.73074e-05 -0.00560546 0.0088848 
1244 1 -0.00168326 0.0103107 0.0134982 0.0170688 
796 1 -0.0133438 0.00423363 0.00290428 0.0142974 
691 1 0.00758619 0.000453183 0.00259804 0.00803153 
421 1 -0.00153925 -0.00158204 0.0145518 0.0147182 
597 1 -0.00950148 0.00717409 -0.00234278 0.012134 
3617 2 -0.000539286 0.00184683 -0.00721699 0.00746904 
120 1 -0.0003311 -0.00518615 -0.00352644 0.00628025 
769 1 -0.00708772 0.0116612 0.00065955 0.0136621 
2142 1 0.00481889 0.00190666 0.00329243 0.0061398 
3611 2 0.00712692 0.00713465 0.00463905 0.0111003 
1915 1 -0.00721741 0.00479892 -0.00295405 0.0091568 
2140 1 -0.00288331 0.00238346 0.00573647 0.00684846 
3828 2 0.0108613 0.000166957 0.00346324 0.0114013 
2192 1 0.00688871 -0.00486782 0.0109495 0.0138218 
175 1 0.00451792 0.00321284 -0.00652126 0.00855925 
2011 1 0.00128078 0.00542327 0.000467718 0.00559205 
75 1 -0.00523491 0.00194995 0.00975921 0.0112449 
547 1 -0.00674694 0.00599269 -9.98239e-05 0.0090246 
4316 2 0.0100227 0.00615929 0.00594438 0.0131806 
559 1 -0.00115241 -0.00157855 -0.00610826 0.00641332 
717 1 0.0161964 -0.00847647 0.00347893 0.0186085 
242 1 0.00247063 -0.000181008 0.00493033 0.00551769 
3510 2 0.000300077 0.000203393 -0.00352283 0.00354143 
130 1 -0.00747716 -0.00926362 0.00209828 0.0120882 
143 1 0.000711471 -0.00196791 -0.0014411 0.00254079 
202 1 -0.00823823 0.00202363 -0.0131554 0.0156534 
182 1 -0.0123625 0.00988316 0.00129993 0.0158808 
84 1 -9.14775e-05 -0.0124615 -0.00497005 0.0134163 
3633 2 -0.00224177 -0.00807094 0.00490383 0.00970634 
35 1 -0.0155092 -0.00789436 -0.000204433 0.017404 
3612 2 0.00141874 0.0118998 -0.0128027 0.0175364 
40 1 0.00878895 0.00785676 0.00593838 0.0131999 
4005 2 0.00730905 -0.00648865 0.00224205 0.0100275 
718 1 0.00585985 0.0133827 0.00332256 0.0149825 
134 1 0.00429756 -0.0105015 -0.00819928 0.0139993 
511 1 -0.00106572 -0.00887977 0.0143494 0.0169083 
757 1 0.00484131 0.0168614 -0.00196152 0.017652 
3555 2 -0.00880146 -0.00423085 -0.000125488 0.00976635 
3481 2 0.00456554 0.00881364 0.00937504 0.0136534 
135 1 0.00222898 -0.00633082 0.00238287 0.0071222 
369 1 0.00672731 -0.00507482 0.00783519 0.0115066 
2148 1 0.00347425 0.00441576 -0.00611097 0.0083014 
3462 2 0.00769476 -0.00843328 -0.00861869 0.0143042 
1914 1 -0.00986085 -0.0117594 -0.00423919 0.0159214 
3661 2 0.00611961 -0.00334954 0.00321085 0.00767975 
1871 1 0.00467425 0.0017048 -0.000933685 0.00506229 
320 1 -0.00648566 -0.00529952 -0.0026075 0.00877199 
582 1 -0.0103986 -0.00541433 0.00508336 0.0127784 
766 1 -0.00367345 0.000951557 -0.00268655 0.00464944 
3552 2 -0.00181711 -0.00226275 0.00106685 0.00309195 
2290 1 -0.00444594 0.00936527 0.00930041 0.0139274 
1794 1 -0.000873042 -0.00601818 0.00238651 0.0065327 
753 1 -0.00947907 0.00318574 -0.00536296 0.0113474 
396 1 -0.00447223 -0.0068115 0.00124942 0.00824369 
496 1 0.000959348 0.009286 -0.00201399 0.0095502 
480 1 -0.00239535 -0.00807498 0.00586684 0.0102646 
253 1 0.00469261 -0.0011411 -0.00551992 0.00733431 
4033 2 0.00252999 0.00471153 -0.00298315 0.00612361 
347 1 -0.00486333 -0.00228179 0.00808342 0.00970568 
586 1 0.00301984 -0.000143627 -0.010836 0.0112499 
3671 2 0.0138163 0.00128517 -0.0122831 0.0185315 
37 1 0.000824253 -0.000142687 0.00174665 0.00193663 
782 1 -0.00108353 0.000637319 -0.000819878 0.0015008 
481 1 -0.00111538 -0.00445999 -0.00707138 0.00843445 
392 1 -0.00393379 -0.00116417 -0.0120028 0.0126845 
333 1 -0.00387242 -0.00267987 -0.00658129 0.00809264 
342 1 0.00450653 0.00571843 -0.00533308 0.00902502 
1179 1 -0.00323914 -0.00111225 -0.000944904 0.00355274 
517 1 -0.00511765 0.000116378 -0.00476048 0.00699043 
1824 1 0.00507573 -0.00419547 0.0143405 0.0157802 
34 1 -0.00509014 0.00433327 0.00665057 0.00942957 
398 1 0.00668217 -0.00016543 0.000509984 0.00670365 
170 1 -0.00623406 -0.00266882 -0.00434072 0.00805158 
235 1 -0.00016727 -0.0141419 -0.00325316 0.0145122 
3852 2 -0.000326148 -0.0115014 -0.00112552 0.0115609 
816 1 0.00429217 -0.000704075 0.00582555 0.00727018 
3931 2 -0.0027341 -0.0101985 0.00977279 0.0143872 
274 1 -0.00524447 -0.00444118 -0.00538094 0.00872829 
30 1 0.00708521 -0.000765632 -0.00333795 0.00786946 
2066 1 0.0118034 -0.00836054 0.00671285 0.0159462 
1082 1 0.00662165 0.00707121 -0.00109496 0.00974922 
1372 1 -0.000301105 0.00125122 0.00537074 0.00552278 
1265 1 0.000979246 0.00394625 -0.00661084 0.00776112 
601 1 0.0100694 0.00392866 0.00930141 0.0142598 
540 1 0.00281101 0.00940164 0.00663747 0.0118469 
589 1 -0.000326548 0.0074832 -0.00416804 0.0085719 
958 1 -0.00152012 0.00530036 -0.00789551 0.00963036 
504 1 -0.00904866 0.00599861 0.00528653 0.0120751 
1349 1 0.00329946 0.0120481 0.00931202 0.0155806 
9 1 -0.0019705 -0.00757662 0.0034944 0.00857315 
149 1 0.0036198 0.00435491 0.00877569 0.0104442 
163 1 0.00423618 0.00771153 -0.00922924 0.0127512 
4247 2 0.00133128 -0.00259922 -0.007515 0.00806247 
1584 1 0.0139875 -0.00566476 -0.0147845 0.0211263 
3570 2 -0.00731243 -0.00306891 -0.00362994 0.0087216 
237 1 0.00196236 0.00105304 -0.00287919 0.00363999 
490 1 0.000855076 -0.000844663 0.00943766 0.00951389 
50 1 -0.00603535 -0.0132717 0.00694564 0.0161494 
152 1 -0.00233852 0.00216687 0.00571577 0.00654477 
3652 2 0.0075041 -0.000348087 -0.00271121 0.00798645 
3823 2 -0.00474254 0.00427435 -0.0032696 0.00717301 
902 1 0.00357541 0.00923462 -0.00189931 0.0100831 
3574 2 -0.00323442 0.00297298 -0.00521016 0.00681512 
770 1 0.000621355 -0.00632184 0.00106414 0.00644081 
154 1 0.00385904 0.00277166 -0.00898947 0.0101678 
116 1 0.00677575 -0.00805891 -2.52782e-05 0.0105289 
710 1 -0.00859406 -0.0135297 0.00295041 0.0162977 
1956 1 -0.00382455 0.00803567 -0.016088 0.0183854 
1810 1 -0.00697811 -0.000561548 0.00720403 0.0100453 
2072 1 3.73992e-05 -0.00592161 -0.012011 0.0133914 
1649 1 0.00616407 -0.00440895 -0.00242828 0.00795809 
186 1 -0.00191269 -0.00964774 0.0078808 0.0126033 
1063 1 -0.00287146 -0.000394542 -0.00637574 0.00700364 
432 1 -0.0071046 0.00155653 -0.00898841 0.0115624 
2495 1 -0.00882978 -0.00754396 0.00734154 0.0137395 
3896 2 -0.00266053 -0.00148976 -0.00137144 0.00334345 
1071 1 -0.00463582 -0.00217413 -0.00592075 0.00782771 
913 1 0.00859182 -0.010865 0.0039305 0.0143985 
1068 1 0.0114493 0.00397109 0.00450971 0.0129304 
265 1 -0.00318145 0.00162091 0.00541725 0.00648811 
1287 1 -0.00101117 0.00918946 -0.00358544 0.00991585 
3799 2 -0.00321596 -0.00175555 -0.00441814 0.00573971 
554 1 0.00029679 0.000120311 -0.00446216 0.00447363 
1414 1 -0.00272739 0.00646987 -0.0117972 0.0137285 
213 1 0.00372128 -0.00738 -0.00171787 0.00844176 
341 1 -0.00551931 -0.00214311 -0.00391132 0.00709606 
3682 2 -0.0089191 0.000794652 -0.0105774 0.0138587 
754 1 -0.00378437 0.0174215 -0.00400531 0.0182722 
112 1 -0.00205571 0.00208529 -2.00956e-05 0.00292827 
1041 1 -0.00758349 -0.0184379 -0.00173169 0.0200116 
119 1 -0.00176748 -0.00701756 0.00961269 0.0120322 
415 1 0.00631644 -0.000404335 -6.50574e-05 0.0063297 
995 1 0.00654003 0.00751287 0.00177369 0.0101174 
4128 2 -0.00527707 -0.00560063 0.0129938 0.0151015 
8 1 0.00919824 0.00934948 -0.000249789 0.013118 
94 1 -0.00361106 -0.000431526 0.00727489 0.00813327 
48 1 -0.00509 -0.00136512 -0.00186129 0.00558893 
1270 1 0.00714614 -0.00761597 0.00396479 0.0111709 
3866 2 0.000257257 0.000735867 -0.00224405 0.00237559 
2206 1 0.00469325 -0.00435582 0.00158501 0.00659637 
3490 2 -0.00256878 -0.0103313 -0.0061281 0.0122836 
3072 1 0.00114587 -0.00409656 0.0124241 0.0131322 
3002 1 0.0100266 -0.0114299 0.00518461 0.0160641 
92 1 -0.00452998 0.0129443 0.00436962 0.0143934 
335 1 -0.00267986 0.00582086 -0.00417945 0.00765061 
4034 2 -0.0107675 -0.00565753 -0.000455337 0.0121719 
1186 1 0.00367522 0.000929563 0.000543149 0.00382966 
1114 1 0.0118895 0.000721333 9.50373e-05 0.0119117 
1821 1 -0.00410747 -0.00287493 -0.00253939 0.00562005 
1922 1 -0.00489497 -0.00919944 -0.00672905 0.0124045 
451 1 -0.00273675 -0.00349634 -0.00491548 0.0066239 
3960 2 0.000529635 -0.00184501 -0.000317357 0.00194559 
100 1 -0.00415024 0.00476269 0.000369763 0.00632807 
1180 1 -0.00384268 -0.00844491 -0.00295397 0.00973697 
165 1 0.00742742 0.00238842 -0.00231013 0.00813682 
388 1 -0.00803717 -0.00627491 -0.00596501 0.0118132 
3742 2 0.0121736 -0.00345932 0.00685825 0.0143944 
323 1 -0.00445428 0.00661341 -0.0138451 0.015977 
288 1 -0.00398362 0.000116672 0.00563395 0.00690104 
3942 2 -0.00430987 0.00682939 0.0122947 0.0147097 
66 1 0.00172453 0.00590399 0.0026949 0.00671517 
340 1 0.000777864 -0.0149353 0.00445024 0.0156036 
138 1 -0.00159876 0.00960039 -0.00138002 0.00982996 
879 1 -0.00100943 -0.000376702 -0.00112655 0.00155883 
3808 2 0.00199509 -0.00781606 0.00251822 0.0084506 
834 1 -0.00664127 0.00129385 0.00197482 0.00704843 
18 1 -0.00216292 -0.00509947 -0.00669959 0.00869295 
3679 2 -0.00243488 -0.00299561 0.00103751 0.00399735 
52 1 -0.00493519 0.00260506 -0.00083726 0.005643 
407 1 -0.00948374 0.000616191 -0.00150718 0.00962251 
360 1 0.0103232 0.00468117 -0.0171247 0.0205363 
2885 1 -0.00244216 -0.0050283 -0.0056932 0.00797875 
3526 2 0.000640824 -0.0111371 -0.0024187 0.0114147 
310 1 -0.0103423 0.00086358 0.00245457 0.0106646 
326 1 0.000791767 -0.00787502 0.00397211 0.00885554 
227 1 -0.000823466 3.61892e-05 0.0036068 0.00369979 
2068 1 -0.00490259 -0.0116634 -0.00903056 0.0155442 
456 1 -0.000661023 -0.00118467 0.00213497 0.00252952 
279 1 -0.00685327 0.00461067 0.00416983 0.00925273 
305 1 -0.0147255 0.000824133 -0.00112664 0.0147915 
49 1 0.00575126 -0.00226873 0.00237432 0.0066228 
3512 2 -0.00435031 -0.0123192 0.00777482 0.0152032 
11 1 0.000338362 -0.00378669 -0.00363645 0.00526092 
189 1 0.00158919 0.00415343 0.00790843 0.00907303 
2271 1 -0.000564112 -0.00355757 -0.00595016 0.0069555 
319 1 -0.00768388 -0.00220996 -0.00408442 0.00897822 
3566 2 -0.00424002 0.00368743 -0.000371195 0.0056314 
71 1 -0.0101186 0.00153035 -0.00156052 0.010352 
1560 1 -0.00511308 -0.000435657 0.00865818 0.0100647 
190 1 0.00243323 -0.00297508 -0.00118617 0.00402227 
123 1 0.00458649 0.00210308 0.00577301 0.00766723 
27 1 -0.00581765 0.000958093 -0.00488155 0.00765458 
162 1 0.0014076 0.00172583 -0.00820538 0.00850224 
255 1 -0.00809948 0.00361243 -0.00568197 0.0105326 
304 1 -0.00847837 0.00114098 -0.00290901 0.00903587 
321 1 -0.000303891 -0.00788116 0.0108666 0.0134271 
682 1 -0.00966381 -0.00241096 -0.00206835 0.0101725 
3469 2 0.0131182 0.0107012 -0.00793112 0.0186951 
3539 2 0.00915096 0.0114723 0.00120056 0.014724 
128 1 0.00944092 -0.00526513 0.00204356 0.0110013 
3562 2 0.011563 0.00312042 0.000953228 0.0120145 
560 1 -0.00579876 -0.00437874 0.00592927 0.00937844 
212 1 0.00569035 0.00258604 0.00365311 0.00723967 
355 1 0.001111 0.00685785 0.0108266 0.0128639 
156 1 0.0117606 -0.000119404 0.00290946 0.0121157 
3620 2 -0.00590879 -0.00238652 0.00483282 0.00799784 
1823 1 0.0133279 -0.0137875 -0.00654336 0.0202619 
1805 1 0.0018231 0.00762082 0.00731997 0.010723 
2599 1 0.00728735 0.0105194 -0.00703288 0.0146022 
327 1 -0.00871447 0.004492 -0.00380995 0.0105184 
137 1 0.00730816 -0.000857821 0.0116827 0.0138069 
2334 1 -0.00139239 0.00470483 -0.000245701 0.0049127 
3698 2 -9.8862e-06 -0.00735946 0.00361712 0.00820033 
555 1 0.00562738 -0.00249385 -0.0010713 0.00624775 
4178 2 0.00760154 0.00233243 0.00156957 0.00810477 
290 1 -0.00139492 0.00629569 -0.00449827 0.00786231 
284 1 -0.00763785 -0.00523723 -0.00810816 0.0123088 
3543 2 0.00709303 0.00166081 -0.000990034 0.00735184 
366 1 0.00142352 -0.00397912 -0.00464672 0.00628107 
55 1 -0.000572556 -0.0016957 0.001402 0.0022735 
273 1 -0.00333433 0.00177171 0.000844506 0.00386909 
3468 2 0.00479067 -0.000486166 -0.00105087 0.00492861 
316 1 0.00420903 -0.00796621 0.0117124 0.0147769 
81 1 -0.010488 0.00676917 0.00798886 0.0148203 
322 1 0.00508211 0.00348667 -0.00692227 0.00926836 
239 1 -0.00481792 0.00188257 -0.00276754 0.00586649 
734 1 -0.00842325 -0.00860989 -0.00300003 0.012413 
384 1 0.00755563 -0.00260049 0.000448992 0.00800323 
3476 2 -0.00537906 0.00594033 0.00289031 0.00851914 
311 1 0.0129259 -0.00750372 -0.00281667 0.0152091 
3471 2 -0.0082149 0.00325104 -0.00452416 0.00992582 
1938 1 -0.00423488 -0.00253048 -0.00386426 0.00626658 
139 1 0.010934 -0.00365604 -0.00516824 0.0126344 
727 1 -0.00701827 -0.00412383 -0.00236887 0.00847783 
1885 1 0.00109737 0.00809258 -0.00993931 0.0128641 
2184 1 -0.000731175 0.0203775 -0.0127365 0.0240415 
2494 1 -0.00626102 -0.011867 -0.00151664 0.0135028 
2091 1 -0.00429953 -0.00342203 -0.00202695 0.00585703 
281 1 0.00875948 -0.000356712 0.00477832 0.00998439 
863 1 -0.000471662 0.00975013 0.00300044 0.0102123 
176 1 -0.0103959 0.00368242 -0.0100256 0.0149046 
3710 2 0.000839646 0.00720426 -3.25526e-05 0.0072531 
3572 2 0.000771431 -0.00389544 0.00377466 0.00547884 
4197 2 -0.00825158 0.000487674 0.00297861 0.00878627 
343 1 0.00296438 -0.00448355 -0.0102153 0.0115431 
282 1 -0.000424563 0.00202651 0.00142356 0.00251267 
1038 1 0.000564488 -0.0081713 -0.00459256 0.00939044 
408 1 0.015082 0.0139268 -0.00377244 0.0208723 
412 1 0.00972808 -0.00597177 0.00116515 0.0114741 
820 1 0.0050962 -0.000607725 -0.0017574 0.00542485 
585 1 -0.0016769 -0.0033957 -0.00454426 0.0059155 
3609 2 0.0105001 0.0018759 -0.000926508 0.0107065 
719 1 -0.00977103 0.0056001 -0.000879738 0.0112964 
608 1 0.00230352 -0.0170147 -0.00361091 0.0175455 
106 1 0.0029479 0.00916023 -0.000884343 0.00966344 
1047 1 -0.0128633 -0.00138626 0.00303698 0.0132895 
3573 2 -0.000663952 0.00156518 -0.00354633 0.00393282 
751 1 -0.00789548 0.000286396 0.00395122 0.00883361 
259 1 0.00734697 -0.00950459 0.00234228 0.0122393 
245 1 -0.00777606 0.00214 -0.0103081 0.0130883 
613 1 -0.00474567 0.00124691 0.0150342 0.0158146 
4296 2 -0.00153962 0.000432891 0.00411531 0.00441515 
272 1 -0.00575425 -0.00878107 0.000266529 0.0105019 
4239 2 0.00103829 -0.00793059 -0.00528872 0.00958869 
88 1 0.00448897 0.0102957 0.00294392 0.0116112 
4 1 0.0146969 0.00233553 -0.00512425 0.0157389 
361 1 0.00393529 0.0100023 -0.013556 0.0173002 
358 1 0.0006959 -0.00297049 0.0117969 0.012185 
194 1 0.00201504 0.00268056 -0.00680727 0.00758845 
2373 1 -0.00232969 -0.00939339 -0.0025465 0.0100074 
1982 1 -0.00317312 -0.00343175 -0.0147046 0.0154296 
3953 2 -0.00599278 0.0035065 0.000161362 0.00694514 
414 1 -8.64804e-05 0.000430065 -0.00285846 0.00289193 
3186 1 0.0047971 -0.00551336 0.00766516 0.0105907 
177 1 0.00851264 -0.00291601 0.00881529 0.0125967 
1962 1 -0.00248536 0.00398556 0.00302214 0.00558525 
706 1 0.00592854 0.000505366 0.00305617 0.00668903 
1544 1 -0.00204779 0.00191532 -0.00404949 0.00492547 
4160 2 4.16689e-05 0.00238347 -0.00170058 0.00292825 
19 1 0.000165138 -0.0110003 -0.0044657 0.0118733 
3624 2 0.00475549 -0.00841018 -0.00406948 0.0104836 
115 1 0.0129109 -0.00516702 -0.00412285 0.0145048 
1102 1 -0.00979578 0.00394804 -0.00390767 0.0112612 
1492 1 0.00673268 0.00178732 0.00264816 0.00745227 
649 1 0.00756658 0.0117416 -0.00592353 0.0151726 
113 1 -0.00382699 0.00828772 0.000392789 0.00913709 
1150 1 0.00720495 -0.0019378 0.0024387 0.00784944 
620 1 -0.0161399 0.00791481 0.00539643 0.0187687 
739 1 0.00173915 -0.00215443 0.000438901 0.00280337 
2412 1 -0.000722686 0.0136026 0.00275573 0.0138977 
3746 2 0.00818786 0.000647509 -0.0132031 0.0155493 
1225 1 0.00603046 0.00951757 0.00867132 0.0142177 
241 1 0.00120678 0.0105915 -0.00160055 0.0107795 
83 1 0.00359768 0.0105541 -0.00220866 0.0113671 
1006 1 -0.0006849 0.000700679 -0.000887552 0.00132204 
4046 2 -0.0174385 0.00322725 -0.00194201 0.0178406 
96 1 0.00796283 -0.00853141 -0.00190089 0.0118239 
411 1 0.00708545 0.00459826 0.00094552 0.0084995 
2454 1 0.00385879 -0.00381104 -0.00247703 0.00596238 
404 1 0.00341002 0.00233103 0.0082367 0.0092144 
226 1 0.0102194 0.00134679 0.00986626 0.0142686 
534 1 0.00347085 -0.00235741 0.00651521 0.00774933 
3538 2 0.00381187 0.00479338 0.00533054 0.00811921 
761 1 0.00709438 0.00827882 -0.00090807 0.0109405 
246 1 0.00955894 -0.00876862 0.00716417 0.0148185 
2229 1 0.00937437 -9.87234e-05 0.00489118 0.0105741 
146 1 -0.000219611 0.0116028 -6.72703e-05 0.0116051 
3608 2 0.00269136 -0.00936576 -0.00765519 0.012392 
503 1 -0.00479538 0.000862715 0.00497615 0.00696434 
505 1 0.00461467 -9.53381e-05 -0.00844509 0.00962413 
1430 1 -0.00513661 -0.00538357 0.00346193 0.00820686 
97 1 -0.000458731 0.00580398 -0.00190934 0.00612717 
1723 1 0.00357364 -0.00801328 -0.00964243 0.0130369 
3561 2 -0.005128 0.00474996 0.00265852 0.00747838 
20 1 -0.00292856 -0.00751595 -0.00726638 0.0108566 
263 1 -0.00976711 0.00424303 0.00874689 0.0137807 
817 1 0.00787766 -0.00499201 -0.00311888 0.00983388 
1034 1 0.00150851 0.00315274 0.00237413 0.00422514 
353 1 0.00464286 -0.00596175 -0.00253045 0.0079688 
1260 1 0.00216502 0.00212016 -0.00499617 0.00584329 
998 1 0.00351773 0.00278158 -0.00435912 0.00625408 
1932 1 0.00850536 -0.00669381 0.00182549 0.0109764 
36 1 0.00346201 -0.00607358 0.00793633 0.0105763 
38 1 -0.00895106 -0.00724569 -0.00433347 0.0123045 
3130 1 -0.00075595 0.00349913 -0.00391874 0.00530772 
1973 1 0.00934278 -0.0108502 0.0145206 0.0203927 
307 1 -0.00314544 -1.49673e-05 -0.00747736 0.00811202 
2714 1 0.0148681 0.00499463 0.00297758 0.0159648 
28 1 -0.00442405 -0.00962174 -0.0115001 0.0156334 
1937 1 -0.00119259 -0.00183253 -0.00470729 0.00519028 
562 1 -0.00693297 -0.00661287 -0.00155461 0.00970633 
3011 1 -0.0100319 -0.00631651 0.00420351 0.012578 
410 1 0.0123469 -0.00100696 0.00325385 0.0128081 
693 1 0.00731586 0.0113274 -0.00517147 0.0144421 
367 1 -0.0060351 0.000117748 -0.00248741 0.00652867 
318 1 0.00978665 0.00374631 0.00177857 0.010629 
735 1 0.00544176 -0.00644345 0.00950939 0.0127106 
600 1 -0.00598103 0.00380441 0.00971823 0.0120287 
3590 2 -0.00597898 0.00106249 -0.014018 0.0152768 
3636 2 0.00690024 -0.0161389 0.0025973 0.0177433 
26 1 -0.00154095 0.00923472 0.00282626 0.00977969 
1199 1 0.00586829 -0.00407904 -0.000546777 0.00716759 
614 1 0.00636475 -0.00624633 -0.00235177 0.00922266 
459 1 0.00962091 0.00536231 -0.00158728 0.0111282 
3645 2 0.00534403 0.00875315 0.00213757 0.0104759 
574 1 -0.00167564 0.0064444 -0.0115209 0.0133067 
780 1 0.00864366 -0.00199148 -0.00200551 0.00909401 
161 1 0.00500028 0.0127869 -0.00684499 0.0153415 
309 1 0.00886363 0.00351781 0.000465858 0.00954756 
365 1 -0.00565005 0.0025971 -0.00281164 0.00682446 
191 1 -0.00300187 0.0116673 -0.00251677 0.0123073 
1766 1 0.00895015 0.0152599 -0.00362178 0.0180579 
2775 1 -0.0050369 -0.00735983 -0.00238394 0.0092315 
1030 1 -0.0047701 -0.00151777 0.00777467 0.00924678 
1505 1 0.000106438 0.0115259 0.00879374 0.0144978 
3872 2 -0.00264086 0.00509185 -0.00247922 0.00624881 
580 1 -0.00254903 -0.00769648 -0.00660894 0.01046 
2054 1 -0.0149324 -0.00421327 -0.00590261 0.0166003 
2064 1 0.00352168 0.000891536 -0.00570717 0.00676527 
529 1 0.00372538 -0.000474381 -0.00644673 0.00746082 
402 1 0.00395138 0.00689157 -0.00700479 0.0105912 
124 1 0.00275601 -0.00475966 -0.00204985 0.00586957 
744 1 -0.00165469 0.0107845 -0.00182586 0.0110624 
185 1 0.0102313 -0.0053543 0.0141013 0.0182262 
315 1 0.00259941 -0.00623604 -0.00815411 0.0105894 
655 1 -0.00627617 0.00658736 -0.000337999 0.00910483 
765 1 -0.00388467 0.0158728 0.00552882 0.0172512 
140 1 0.00271051 0.00550809 0.00989086 0.0116411 
59 1 -0.00309478 -0.00345555 0.00281959 0.0054285 
54 1 0.0048708 0.00501774 0.0184503 0.0197311 
3506 2 0.00920186 0.00188961 -0.000526691 0.00940863 
666 1 -0.00507723 -0.0029932 0.00495476 0.00769982 
43 1 0.000665567 0.0195742 0.00228051 0.0197178 
334 1 0.00366156 0.00639582 0.00540956 0.00914204 
267 1 0.00332258 0.00419066 0.00399143 0.00667328 
99 1 0.012315 -0.0135633 0.0119262 0.0218599 
1189 1 -0.00749471 -0.00795948 -0.0118721 0.0161391 
201 1 0.00466272 -0.000701687 -0.00576993 0.00745154 
380 1 0.00767114 0.007105 -0.00926555 0.0139706 
1777 1 0.00690974 -0.00326571 -0.00738122 0.0106251 
2597 1 0.0112727 0.00331186 -0.010011 0.0154358 
2484 1 0.0172175 0.00853874 -0.00604995 0.0201483 
308 1 -0.00822985 -0.00769456 -0.00523394 0.012423 
3918 2 -0.00233804 0.0069023 -0.00820337 0.0109729 
89 1 -0.00277331 -0.0143004 -0.00578184 0.0156724 
300 1 -8.62906e-05 0.00616559 -0.0022828 0.00657519 
3582 2 0.00197759 0.0193719 -0.00455023 0.0199971 
712 1 -0.00579704 0.00282876 0.00649625 0.00915471 
3836 2 0.000625517 0.00108184 -0.00339153 0.00361443 
268 1 0.00675008 0.00604872 -0.00353851 0.00972994 
788 1 0.00549201 -0.00621803 -0.00567471 0.0100513 
4091 2 -0.00411015 0.00461901 0.0139366 0.0152465 
371 1 0.00696403 -0.00274175 -0.00735898 0.0104962 
3505 2 0.00041771 -0.00447992 0.00839488 0.00952461 
266 1 -0.00372011 -0.000227881 0.000366254 0.00374503 
3571 2 -0.0134277 0.0156895 -0.00467599 0.0211738 
637 1 -0.00651677 0.000638626 0.0040347 0.00769122 
157 1 0.0127819 0.00889804 0.00110003 0.0156129 
257 1 0.000853165 0.00685975 0.0127091 0.0144674 
571 1 -0.00864464 -0.0033819 -0.00871791 0.0127346 
665 1 -0.000868873 0.0054579 0.00658606 0.00859766 
448 1 -0.00999691 0.00117405 0.00082174 0.0100991 
827 1 0.0140408 0.00457125 0.0012257 0.0148169 
3475 2 -0.00507904 -0.00316644 0.00285797 0.00663257 
73 1 -0.00106334 0.0101965 -0.00448526 0.01119 
373 1 -0.000944319 -0.0075652 0.00297059 0.0081822 
247 1 -0.00536854 0.00210438 0.00378633 0.00689825 
107 1 0.00247327 0.000881528 0.00413666 0.00489961 
675 1 0.00597733 0.00457094 -0.01166 0.0138773 
434 1 0.00113661 0.00599636 0.00309531 0.00684318 
159 1 0.00648751 -0.00212179 -0.00182408 0.0070652 
32 1 -0.00269267 0.00387217 -0.00464382 0.00661885 
3579 2 -0.00563045 -0.0110271 0.00140239 0.0124606 
394 1 -0.00642408 -0.00448771 0.000696106 0.00786721 
260 1 -0.00849561 -0.00301492 0.00288414 0.00946485 
3972 2 -0.0039166 -6.65614e-05 0.0127056 0.0132958 
1801 1 -0.00921186 -0.00246119 0.00672117 0.0116658 
2122 1 -0.00132272 0.00706433 0.00260451 0.00764447 
1966 1 0.0055772 0.00819467 -0.00564233 0.0114059 
291 1 0.000928101 -0.00300254 0.00321706 0.00449735 
2047 1 0.00414869 -0.00237517 0.000845678 0.00485471 
1899 1 -0.00750934 0.0215535 0.00241258 0.0229514 
622 1 -0.0106911 -0.00155889 0.0023341 0.0110534 
1993 1 0.000892865 0.00672652 0.00167482 0.00698916 
62 1 0.00929835 0.0058734 -0.00140382 0.0110872 
2187 1 0.0094157 0.00135568 -0.00887215 0.013008 
4318 2 0.00311578 -0.00346415 -0.00101944 0.00476945 
44 1 -0.00970688 -0.00996714 0.00108485 0.0139551 
824 1 -0.0100348 -0.000717316 -0.00266145 0.0104065 
1282 1 -0.00859003 -0.00658626 0.0085852 0.0138157 
3626 2 -0.00244912 0.00167949 0.000632379 0.00303624 
819 1 0.00709064 -0.00432775 -0.00590389 0.0101913 
773 1 -0.000607418 -0.0068164 0.00154871 0.00701647 
270 1 0.00674754 -0.00638481 0.0114725 0.0147619 
14 1 -0.00511779 0.00776694 -0.00452012 0.0103416 
3540 2 0.00414551 -0.00826876 0.000837168 0.00928755 
997 1 0.0034389 0.00918449 0.00941626 0.0135958 
4275 2 -0.00118431 -0.0105298 -0.00489612 0.0116727 
164 1 0.0014449 0.00594909 0.0169261 0.0179993 
234 1 -0.00787247 -0.00197443 0.00230051 0.00843602 
1125 1 -0.0014442 0.00953964 -0.00431613 0.0105697 
3985 2 -0.00897642 -0.00290781 0.00402141 0.0102569 
328 1 -0.000417895 -0.005436 -0.00432494 0.00695916 
3474 2 8.45215e-05 0.00445222 -0.00055674 0.00448769 
543 1 0.00157317 -0.00713799 0.00340356 0.00806288 
293 1 0.00106197 -0.00135549 -0.00162782 0.00236959 
3458 2 0.00585032 -0.00904673 0.00214403 0.0109848 
390 1 -0.00417222 -0.00809919 0.00954974 0.0131985 
3706 2 0.0160218 -0.000201745 -0.00957465 0.0186658 
2169 1 0.00177181 -0.00369612 0.00557626 0.00692065 
1786 1 -0.00879188 0.00582654 -0.00686708 0.0125858 
1478 1 0.00433457 -0.00219132 0.00632934 0.00797816 
87 1 -0.00790629 -0.00604437 0.00207997 0.0101671 
4090 2 -0.0014893 -0.00936284 0.0128843 0.0159965 
142 1 -0.00254865 0.00236307 0.00743219 0.00820471 
1650 1 -0.00622891 -0.00194742 -0.00830135 0.0105596 
153 1 -0.000139154 0.00274381 0.00315218 0.0041814 
374 1 -0.00117602 -0.0073343 0.00779378 0.0107665 
602 1 -0.00465835 0.00128424 0.00227806 0.00534219 
1277 1 -0.00612324 -0.00450449 0.00563792 0.00946417 
76 1 -0.0108174 -0.00306949 -0.00210021 0.0114389 
1370 1 0.000339046 -0.00673252 0.00914925 0.0113644 
221 1 0.00656689 -0.00766442 -0.00827432 0.0130511 
604 1 -0.000101061 0.00963293 0.00489708 0.0108067 
1161 1 -0.00435704 0.000805175 0.0136419 0.0143434 
1718 1 -0.00889175 0.000969609 -0.00187947 0.00913979 
178 1 0.0088861 -0.00850982 -0.00106156 0.0123494 
295 1 -0.00523079 -0.00597918 -0.000787815 0.00798325 
1472 1 -0.00907428 -0.00952336 0.00393946 0.0137316 
4159 2 -0.0022502 -0.00696 -0.00349752 0.00810788 
3467 2 0.00814523 0.000818965 0.00220506 0.00847807 
3531 2 0.00926039 0.00273035 0.0145694 0.0174779 
2720 1 -0.0162759 0.00113521 0.00204565 0.0164431 
1851 1 0.00526856 0.00907058 0.000468495 0.0105001 
732 1 -0.00851838 -0.00617724 -0.000402552 0.0105301 
4009 2 0.0059856 0.00324116 -0.00511697 0.00851562 
3878 2 0.000148462 0.000717337 -0.00236837 0.00247907 
3185 1 0.00236313 0.0016119 -0.00268363 0.00392231 
110 1 -0.0125842 0.00275884 0.00106918 0.0129273 
2963 1 0.000565604 0.00871593 0.00310013 0.00926812 
2608 1 -0.00248858 -0.00172898 0.00313361 0.00435912 
3301 1 0.00476607 -0.00276218 0.00168658 0.00576105 
3759 2 -0.00118147 0.00726708 -0.000328612 0.00736982 
4171 2 0.00753037 -0.00371062 0.00401437 0.00930539 
2118 1 -0.00464372 -0.001591 -0.011888 0.0128615 
1742 1 0.00296419 -0.00837692 -0.00265841 0.00927504 
642 1 0.00420957 -0.00692132 0.00682044 0.0105898 
3366 1 -0.00944295 0.00359416 0.00346699 0.0106821 
144 1 0.0110924 -0.00161903 0.000665914 0.0112297 
681 1 0.00669533 -0.00423558 -0.00209399 0.00819466 
1666 1 0.00973139 -0.00266004 -0.00573651 0.0116053 
183 1 -0.00858244 -0.0017751 -0.00047274 0.00877683 
694 1 -0.00730635 0.003299 0.00947113 0.0124084 
444 1 -0.00262968 0.0118547 -0.00527241 0.0132381 
869 1 -9.22258e-06 -0.0121098 0.00553088 0.0133131 
920 1 -0.00181523 -0.00636216 -0.00233155 0.00701486 
53 1 0.00505095 -0.00034959 0.00214838 0.00549998 