ITEM: TIMESTEP
40
ITEM: NUMBER OF ATOMS
4320
ITEM: BOX BOUNDS pp pp pp
0.0000000000000000e+00 1.9309999999999999e+01
0.0000000000000000e+00 1.9309999999999999e+01
0.0000000000000000e+00 9.6549999999999994e+00
ITEM: ATOMS id type c_displacement[1] c_displacement[2] c_displacement[3] c_displacement[4] 
4012 2 0.0215929 -0.0685706 0.00788325 0.072321 
2361 1 -0.0253446 -0.0479668 -0.0504905 0.0741111 
79 1 -0.0619524 -0.075584 0.0299688 0.102221 
781 1 0.0570599 -0.0280613 0.0508069 0.0813917 
461 1 -0.00396645 0.000353233 -0.0364249 0.0366419 
3704 2 -0.00469816 -0.0628402 0.0212408 0.0664992 
629 1 -0.0616094 0.05377 0.0353901 0.0891033 
1571 1 0.00588864 0.00178292 -0.0282299 0.0288926 
58 1 0.106825 0.0383165 0.13406 0.175647 
2372 1 -0.0530483 -0.0433167 -0.0124662 0.0696122 
372 1 -0.00594473 -0.0187567 -0.0187751 0.0271967 
3504 2 -0.00668691 -0.0758652 0.0346003 0.0836506 
4130 2 0.00348768 -0.0219372 -0.0618413 0.0657096 
1262 1 0.0445788 0.0910099 -0.0730686 0.124936 
907 1 -0.0838279 -0.0583727 -0.132385 0.167214 
3659 2 0.0202623 0.165711 -0.0889102 0.189145 
1298 1 0.0741403 0.0494133 -0.0898948 0.126568 
1716 1 0.0159312 0.0899149 -0.0559282 0.107082 
1182 1 0.0208552 0.0128015 0.00277137 0.0246272 
683 1 -0.0100075 -0.0345842 0.0531866 0.0642264 
1958 1 0.0221134 -0.0676744 0.0574553 0.0914874 
1554 1 0.0160376 -0.0702239 -0.060787 0.0942532 
1037 1 -0.0245166 -0.16186 0.0190627 0.164812 
749 1 -0.0993077 -0.0573283 0.0473694 0.124066 
3628 2 0.0562174 0.0513211 0.0216202 0.0791308 
946 1 -0.0352641 0.00011064 -0.0583818 0.0682056 
2232 1 0.0161418 -0.0255253 -0.0870125 0.0921047 
7 1 0.0368728 0.0138987 0.0137818 0.0417458 
501 1 0.011784 0.0856658 -0.081979 0.119156 
179 1 -0.0248787 -0.0275574 -0.0965464 0.103439 
714 1 -0.0622405 -0.0421587 0.116326 0.138502 
4166 2 0.0100683 -0.0561862 -0.018752 0.0600824 
276 1 -0.0283816 0.0326396 0.0946731 0.104086 
767 1 -0.0633969 -0.0220243 0.051132 0.0843725 
3890 2 -0.157169 -0.0423086 -0.103548 0.192911 
6 1 0.00468757 0.106896 -0.0186198 0.108606 
2086 1 -0.0163515 0.00141968 0.0454491 0.048322 
224 1 0.0249426 -0.0289411 0.00218843 0.0382689 
3660 2 0.0365794 0.0316948 0.0353255 0.0599208 
596 1 -0.0732641 -0.0106882 -0.0161937 0.0757899 
1214 1 0.0030625 -0.0576034 -0.057526 0.0814664 
3686 2 0.0380923 0.0249407 0.0166691 0.0484863 
427 1 -0.0647748 0.0759846 0.0824146 0.129467 
350 1 0.0105077 0.055147 0.000326411 0.0561401 
85 1 -0.0301429 -0.000391585 0.00991699 0.0317348 
598 1 -0.0332877 -0.0303241 0.110778 0.11958 
3554 2 0.0140361 -0.0264127 -0.0316859 0.0435734 
29 1 -0.0427652 0.0602354 0.036219 0.0822738 
464 1 -0.0246987 0.0273584 -0.0528998 0.064474 
3619 2 -0.0368614 0.0388922 0.0784931 0.0950397 
12 1 0.0261233 -0.163053 0.0181855 0.166131 
364 1 -0.105349 0.0202035 -0.0739201 0.130272 
1849 1 -0.0804438 -0.078739 -0.00972939 0.112985 
3663 2 -0.136648 0.0488602 -0.0572655 0.156011 
3517 2 0.0317454 0.00975526 0.0893397 0.0953127 
25 1 0.139188 -0.023262 -0.037274 0.145958 
4163 2 0.0055728 0.0139533 -0.0219135 0.0265698 
399 1 0.0134333 0.0150574 -0.0205356 0.0287904 
4265 2 -0.0454733 0.0612101 0.0280617 0.0812525 
527 1 0.0185869 -0.013769 -0.0345101 0.0415452 
200 1 0.0838973 0.0330834 0.0563866 0.106361 
1951 1 0.112437 0.0906507 0.0443181 0.151075 
644 1 0.0338848 -0.0447516 0.0569374 0.0799547 
193 1 0.0210462 0.0856585 -0.00495982 0.0883455 
550 1 0.00357278 -0.0331977 -0.0269767 0.0429254 
69 1 0.0115503 -0.0186441 0.00752841 0.0231881 
842 1 -0.0762748 0.0369007 -0.0713883 0.110796 
578 1 -0.0329853 0.0179227 0.00774628 0.038331 
172 1 -0.00723887 -0.0723988 0.0223186 0.0761059 
381 1 -0.00787121 0.0433965 -0.0781553 0.0897411 
3524 2 0.0593896 -0.0984676 0.125655 0.17033 
688 1 -0.0762387 0.0877866 -0.0175097 0.117582 
3651 2 -0.030626 0.0509969 0.0211806 0.0631447 
2367 1 0.0445135 0.0234067 -0.0061573 0.0506679 
1244 1 -0.07242 0.0114126 0.0241111 0.0771767 
796 1 -0.0934144 0.0904058 -0.0326458 0.134034 
691 1 0.0548905 -0.0133339 0.0175965 0.0591641 
421 1 0.0309034 0.0306671 0.0962246 0.105616 
597 1 -0.0454016 0.058655 -0.0153636 0.075748 
3617 2 0.0197616 0.0117474 -0.0515516 0.0564454 
120 1 0.0700663 0.0718232 0.0399579 0.108002 
769 1 -0.0464852 0.00462228 0.0533447 0.0709077 
2142 1 -0.0101042 0.0257446 -0.0241502 0.0367166 
3611 2 0.129341 0.0522567 0.119813 0.183889 
1915 1 -0.0233022 0.0422948 0.0193903 0.0520368 
2140 1 -0.014899 -0.000710785 0.095848 0.0970017 
3828 2 0.102061 0.0252179 0.0406332 0.11271 
3204 1 0.00613815 0.0748329 0.0333233 0.0821468 
175 1 0.0858768 0.0519596 -0.0355373 0.106478 
2011 1 0.086712 0.025666 -0.0408872 0.0992445 
75 1 -0.00250198 0.0832008 -0.00207305 0.0832643 
547 1 -0.0324298 -0.0160816 -0.0652688 0.0746346 
4316 2 -0.0501789 0.0313143 -0.0244054 0.0639854 
559 1 0.0365074 0.0450205 -0.0229625 0.0623452 
717 1 -0.000129068 0.0653671 -0.0391111 0.0761745 
242 1 0.00905595 -0.0290154 0.0602615 0.0674933 
3510 2 -0.0582974 0.0275808 0.0684656 0.0940576 
130 1 0.0757862 -0.0393152 0.109464 0.138822 
143 1 -0.0174207 0.0456678 -0.0624903 0.0793351 
202 1 -0.123441 -0.0480342 -0.0558477 0.14375 
182 1 -0.113574 0.0433646 -0.00917293 0.121917 
84 1 0.0371179 -0.0491647 -0.0500479 0.0793706 
3633 2 0.0199578 -0.065714 0.0495205 0.0846694 
35 1 -0.126576 -0.0192243 0.105808 0.166091 
3612 2 0.0252432 0.0406091 -0.0697885 0.0845976 
40 1 0.131306 0.0819838 0.0656254 0.168135 
4005 2 0.0512682 -0.0739967 0.0245969 0.0933217 
718 1 -0.0414354 0.0131888 -0.0484949 0.0651352 
134 1 -0.0201208 -0.026431 0.0749367 0.0819693 
511 1 -0.042879 -0.0689138 0.046345 0.0934643 
757 1 0.0548716 0.133675 0.000612412 0.1445 
3555 2 -0.0614266 0.0432543 0.0293797 0.0806681 
3481 2 -0.0294958 0.0048645 -0.0386239 0.0488413 
135 1 0.0136538 -0.0476629 -0.0223328 0.0543777 
369 1 0.0333549 -0.0322709 0.107015 0.116645 
2148 1 -0.0775758 -0.0445487 -0.00175514 0.0894745 
3462 2 0.0418012 -0.0692835 -0.141206 0.162747 
1914 1 -0.00922815 0.0350659 0.0119428 0.038176 
3661 2 0.0680644 -0.0973454 0.018538 0.120219 
1871 1 0.0181673 0.026031 -0.0371273 0.0488477 
320 1 -0.039025 -0.0210354 -0.0390975 0.0591105 
582 1 -0.00492232 -0.0987242 -0.0171707 0.100327 
766 1 -0.030251 0.0136375 0.00218811 0.0332549 
3552 2 -0.00824363 -0.0476762 0.0128026 0.0500488 
2290 1 -0.0424502 0.0355835 0.0368297 0.0665179 
1794 1 0.0138812 0.0164578 0.0538603 0.0580042 
753 1 -0.0697323 0.0380755 0.0287595 0.0844952 
396 1 -0.00488557 -0.0191114 0.1068 0.108607 
496 1 -0.0056635 0.0293248 -0.0810054 0.086336 
480 1 -0.0408522 -0.0515753 0.069421 0.0956462 
253 1 0.0473047 -0.000346783 -0.00295959 0.0473984 
4033 2 -0.00973951 0.022516 -0.0452262 0.0514513 
347 1 -0.0592003 0.0242158 0.0243725 0.0684477 
586 1 -0.0776789 0.0401079 -0.104158 0.135984 
3671 2 0.0849256 0.0105694 -0.0813159 0.118052 
37 1 -0.00645642 -0.0792174 0.00958052 0.0800554 
782 1 0.0283939 -0.0981282 -0.0144149 0.103166 
481 1 0.0583388 -0.00526232 -0.0689994 0.0905098 
392 1 -0.0486682 0.0421044 -0.0933205 0.113358 
333 1 0.0431588 -0.0459242 -0.0191146 0.0658565 
342 1 -0.00865981 -0.00926959 -0.0339775 0.0362683 
1179 1 -0.00928334 0.00241793 -0.056388 0.0571982 
517 1 -0.00787927 -0.0658706 -0.0285077 0.072206 
1824 1 0.0606337 -0.0414991 0.109663 0.132002 
34 1 0.0333347 0.0172965 0.034596 0.0510613 
398 1 -0.00135979 -0.0316333 -0.0564151 0.0646929 
170 1 -0.0637343 -0.0568248 -0.0478462 0.0978794 
235 1 0.0248256 -0.117085 0.0505801 0.129937 
3852 2 -0.0201459 -0.030874 -0.0104818 0.0383266 
816 1 0.0386267 -0.0108477 -0.0366731 0.0543563 
3931 2 -0.101622 -0.102974 0.107475 0.180226 
274 1 -0.0285446 -0.0435445 -0.0127284 0.0535998 
30 1 0.0149882 -0.00602982 -0.0280788 0.0323948 
2066 1 0.067443 -0.043512 0.107838 0.134428 
1082 1 0.0102237 -0.0487512 0.0556887 0.0747157 
1372 1 0.00573707 -0.0389718 0.0883242 0.0967103 
1265 1 0.0801265 -0.0304971 -0.0829503 0.119294 
601 1 0.0189118 0.0606446 0.036303 0.0731665 
540 1 0.010937 0.0115045 0.0184156 0.0243127 
589 1 -0.0396567 0.126326 0.0719995 0.150715 
958 1 0.0870454 -0.00300289 -0.01898 0.0891413 
504 1 -0.0783301 0.0368557 -0.017674 0.0883534 
1349 1 -0.0471872 0.0336782 -0.0450484 0.073418 
9 1 0.00834028 -0.101507 0.0327469 0.106984 
149 1 0.0041353 0.0684906 -0.00167364 0.0686357 
163 1 0.0270146 -0.0817731 0.0093511 0.086626 
4247 2 0.0124077 -0.0489837 -0.0518945 0.072432 
1584 1 0.14318 -0.012329 -0.0970466 0.173409 
3570 2 -0.0265228 -0.0720021 0.00605917 0.0769706 
237 1 0.0190241 0.0470439 0.028985 0.0584395 
490 1 -0.0170302 -0.0573041 -0.00989331 0.0605942 
50 1 -0.0466388 -0.0624326 0.0304581 0.0836702 
152 1 0.0436035 0.0104751 -0.0264832 0.0520802 
3652 2 -0.013646 -0.0223021 0.00245527 0.0262607 
3823 2 0.0186692 0.0793337 -0.095473 0.125529 
902 1 0.0302165 0.0608893 -0.0202444 0.0709252 
3574 2 -0.0335101 0.0533422 -0.0579901 0.0856222 
770 1 -0.010913 -0.061642 -0.0296222 0.0692554 
154 1 -0.00590718 -0.0266879 -0.0161119 0.031729 
116 1 0.0846171 -0.0568661 0.0343571 0.107584 
710 1 -0.0789344 -0.131129 -0.0632273 0.1656 
1956 1 -0.0125169 0.0414527 -0.0541916 0.0693667 
1810 1 -0.10816 -0.0370039 0.0795834 0.139289 
2072 1 -0.0460105 -0.0280005 -0.00692557 0.0543043 
1649 1 -0.0314595 0.0128125 -0.0473105 0.0582421 
186 1 -0.043377 0.0033584 0.0759891 0.0875625 
1063 1 -0.0389363 0.0652735 -0.162743 0.179616 
432 1 -0.0961578 0.0746364 -0.106562 0.161779 
2495 1 -0.0760527 -0.101813 0.0734787 0.146796 
3896 2 0.00592087 -0.0116707 -0.0523938 0.0540034 
1071 1 -0.0115554 -0.0347715 -0.0453956 0.0583382 
913 1 0.0569803 -0.0643302 0.0331085 0.092094 
1068 1 0.0264309 0.0200099 -0.00760713 0.0340126 
265 1 -0.066675 0.0142192 -0.0328488 0.0756756 
1287 1 0.0260168 0.105495 0.0103379 0.109146 
3799 2 0.0460177 -0.050391 -0.0991071 0.120329 
554 1 0.0406378 -0.055182 -0.0630842 0.0931456 
1414 1 -0.0235642 0.0399376 -0.0726207 0.0861629 
213 1 0.000888297 -0.0256261 0.013869 0.029152 
341 1 -0.06618 -0.0370674 -0.0360033 0.0839644 
3682 2 -0.0391882 0.0228834 -0.0478135 0.0659204 
754 1 -0.0608958 0.0829732 0.00163651 0.102935 
112 1 -0.0651346 0.0453085 0.00485361 0.0794918 
1041 1 -0.0198108 -0.0665535 0.0274415 0.074665 
119 1 0.0105627 0.00722657 0.07196 0.0730892 
415 1 -0.00229106 0.0480101 -0.0409382 0.063136 
995 1 -0.0560046 0.0399266 0.0233303 0.0726289 
4128 2 -0.017606 -0.0391616 0.122635 0.129934 
8 1 0.054486 0.0590201 -0.0011821 0.0803337 
94 1 0.0119955 -0.0657078 -0.00183937 0.0668191 
48 1 0.0267975 0.0258143 0.0150506 0.0401374 
3998 2 0.0143369 0.0365773 0.0584435 0.0704208 
3866 2 0.0514646 0.029442 -0.0158181 0.0613649 
2206 1 0.0200729 -0.00581439 -0.0197727 0.0287695 
3490 2 -0.0859135 0.00400582 -0.0132283 0.0870181 
3072 1 -0.00439275 -0.0539157 0.0503065 0.0738711 
3002 1 0.0781159 0.0701319 0.036413 0.111115 
92 1 0.0307425 0.089541 0.0997852 0.137549 
335 1 -0.0428172 0.0735501 -0.0483808 0.097896 
4034 2 -0.149456 -0.135724 0.0429667 0.206408 
1186 1 0.0214164 0.00095665 0.00588654 0.0222313 
1114 1 0.0687529 0.0328661 0.0300586 0.0819186 
1821 1 -0.0306769 -0.0583115 -0.0625067 0.0908206 
1922 1 0.0178637 -0.0830987 0.0237845 0.0882622 
451 1 -0.0897922 -0.0491153 -0.00320107 0.102397 
3960 2 0.00280035 -0.033271 0.020617 0.0392411 
100 1 -0.0256134 0.047644 -0.071879 0.0899589 
1180 1 0.00122173 -0.0468797 -0.0729067 0.0866867 
165 1 0.0669531 -0.0250539 -0.00147344 0.0715024 
388 1 -0.0693373 -0.0575319 -0.0379559 0.0977662 
3742 2 0.0782084 -0.0443026 0.027664 0.0940456 
323 1 -0.102787 0.122032 -0.0691823 0.173906 
288 1 -0.0541082 0.0134627 0.00845992 0.056396 
3942 2 -0.057106 0.0525104 0.0899176 0.118759 
66 1 0.0569977 0.0345982 0.0524539 0.0848362 
340 1 -0.0108688 -0.00449401 -0.0159924 0.0198516 
138 1 -0.0235661 -0.000130863 0.0165838 0.0288167 
879 1 0.00853852 -0.00703455 -0.0689408 0.0698228 
3808 2 0.0624577 0.0244776 -0.00753255 0.0675045 
834 1 -0.0128018 0.018854 0.0200942 0.0303832 
18 1 -0.0631094 -0.0575791 -0.0930233 0.126299 
3679 2 0.0258412 -0.02773 -0.0188233 0.0423207 
52 1 0.0545263 -0.0225469 -0.0111347 0.0600455 
407 1 -0.0283326 -0.00788729 -0.0703933 0.07629 
360 1 0.0536205 -0.0420878 -0.103023 0.123532 
2885 1 -0.0967459 -0.0613998 -0.0246141 0.117199 
3526 2 -0.00960765 -0.168104 -0.0482911 0.175167 
310 1 -0.0696648 -0.0323993 0.00514787 0.0770026 
326 1 0.089542 -0.00835685 0.0508657 0.10332 
227 1 -0.0147752 -0.0270575 -0.0204536 0.0369968 
2068 1 -0.0970782 -0.0464675 -0.0954429 0.14385 
456 1 0.0234973 -0.00605187 0.0306839 0.0391184 
279 1 -0.0244366 0.0202322 0.0811669 0.0871468 
305 1 -0.0576336 0.0219787 -0.036339 0.0715906 
49 1 0.0037525 0.077819 0.0503547 0.0927657 
3512 2 0.00439075 -0.0840595 0.0431342 0.0945824 
11 1 -0.0558155 -0.141292 0.0172294 0.152891 
189 1 -0.0381868 0.0841942 0.065478 0.113288 
2271 1 -0.0925377 -0.0292057 -0.0160767 0.0983599 
319 1 -0.0803838 -0.0478996 -0.00777631 0.0938957 
3566 2 0.000587341 0.0597582 -0.0512256 0.0787112 
71 1 0.000345414 0.014697 0.0191152 0.0241146 
1560 1 -0.0225225 -0.0384896 0.0474281 0.065101 
190 1 -0.0100177 -0.0309796 0.0589509 0.0673446 
123 1 0.064857 0.0145539 0.0615828 0.0906128 
27 1 -0.0396623 0.00156921 -0.0321397 0.0510737 
162 1 -0.0148056 -0.00303952 -0.0942893 0.095493 
255 1 -0.084409 0.0125159 -0.0349479 0.0922111 
304 1 -0.0822829 0.000269175 -0.0448214 0.093699 
321 1 0.0031786 -0.0701579 0.134499 0.151731 
682 1 -0.0460826 0.0391269 0.00368471 0.0605649 
3469 2 0.0654486 0.055785 -0.0844952 0.120561 
3539 2 0.0294754 0.0383924 0.0805211 0.093949 
128 1 0.0605608 -0.0382821 -0.0508961 0.0878837 
3562 2 0.0990583 0.0290039 0.0700544 0.124745 
560 1 -0.109519 -0.0515703 0.00359328 0.121107 
212 1 -0.0308166 0.0419037 -0.0175858 0.0549076 
355 1 0.019564 0.0623547 0.105366 0.123987 
156 1 0.0567244 0.0588417 0.0654165 0.104687 
3620 2 0.000853483 -0.0467995 -0.0085117 0.0475749 
1823 1 0.151908 -0.112604 -0.0853392 0.207457 
1805 1 -0.0280107 0.0728349 0.0864917 0.116492 
2599 1 -0.0442765 0.0110767 0.0181499 0.0491174 
327 1 0.0280152 0.00763294 0.00529147 0.0295146 
137 1 0.0567896 0.000806029 0.0571595 0.0805787 
2334 1 -0.0102865 0.0444218 0.0368184 0.0586063 
3698 2 0.036571 -0.0709179 0.0160365 0.0813877 
555 1 -0.00635313 -0.044434 -0.0485477 0.0661182 
4178 2 0.0291638 -0.060665 0.0427169 0.0797214 
290 1 -0.00966041 0.0544161 -0.0158365 0.0574911 
284 1 -0.0117553 0.00887107 -0.054613 0.0565638 
3543 2 0.00576589 -0.011107 0.0365258 0.0386101 
366 1 0.0303358 -0.0439949 0.038537 0.0658856 
55 1 -0.024519 0.0372168 -0.0113282 0.0459848 
273 1 -0.0192558 -0.0680619 -0.00997667 0.0714335 
3468 2 0.0595375 0.0180914 0.0381126 0.0729698 
316 1 0.0918196 -0.0254973 0.104012 0.141066 
81 1 -0.0624711 0.0166946 0.0222043 0.0683695 
322 1 0.0331427 -0.0222849 0.00691786 0.0405328 
239 1 -0.0230472 0.021801 -0.05672 0.0649893 
734 1 -0.0432445 -0.0791381 -0.0406482 0.0989202 
384 1 0.0920943 -0.0496667 -0.0603042 0.120767 
3476 2 -0.00530568 0.0914291 0.0072524 0.0918696 
311 1 -0.00702974 -0.040699 -0.0752421 0.0858324 
3471 2 -0.00123095 0.0248953 0.0259555 0.0359858 
1938 1 0.027221 -0.0611012 -0.00843813 0.0674206 
139 1 0.125447 -0.0423052 -0.00935654 0.132718 
727 1 0.0592617 -0.0362178 0.0575504 0.0901983 
1885 1 0.000814314 0.0345405 -0.0698776 0.0779525 
2184 1 0.102005 0.163117 -0.0970196 0.215464 
2494 1 -0.137836 -0.0623592 -0.135148 0.202861 
2091 1 -0.0365892 -0.00832598 -0.0551429 0.0666995 
281 1 0.0404893 0.0929406 0.101592 0.143521 
863 1 0.018532 0.0865361 -0.023175 0.0914823 
176 1 -0.0776999 0.0634604 -0.0409538 0.108359 
3710 2 -0.00617711 0.0633509 -0.039596 0.0749622 
3572 2 0.00176735 -0.0852882 -0.0553357 0.101682 
4197 2 -0.0728592 0.0481077 -0.0337572 0.0936075 
343 1 -0.0164026 -0.038363 -0.103434 0.111532 
282 1 -0.0226467 -0.0371329 -0.0116031 0.0450151 
1038 1 -0.0173394 0.0664215 0.0200048 0.0715029 
408 1 0.154232 0.0675258 -0.0251303 0.170232 
412 1 0.132372 -0.0542684 -0.0130477 0.143658 
820 1 0.0999411 0.00762351 0.0342918 0.105935 
585 1 -0.0638885 -0.0407789 -0.0684236 0.10211 
3609 2 0.0443784 -0.0711433 0.0085508 0.0842848 
719 1 -0.017774 0.0667306 -0.0237439 0.0730251 
608 1 0.00595557 0.00916216 0.00220447 0.0111478 
106 1 -0.0171355 0.0578805 0.0476276 0.0768906 
1047 1 -0.107145 -0.0295308 -0.0189105 0.112737 
3573 2 0.00717097 0.028043 -0.0601423 0.0667453 
751 1 -0.0189815 -0.0178407 -0.0549822 0.0608411 
259 1 0.0604631 -0.0536482 0.0145131 0.0821252 
245 1 -0.077548 -0.022278 -0.0458767 0.0928153 
613 1 -0.0429825 -0.0157108 0.127086 0.135075 
4296 2 -0.0309114 0.0425509 0.0244401 0.057995 
272 1 -0.0985215 -0.0948515 -0.0153872 0.137623 
4239 2 -0.0305286 -0.106156 -0.055982 0.123835 
88 1 0.0665364 0.0892834 0.0740319 0.133714 
4 1 0.102439 -0.0113832 -0.0643842 0.121526 
361 1 0.0666935 0.096774 -0.128294 0.17399 
358 1 -0.0381887 -0.0315976 -0.0398169 0.0635781 
194 1 0.000479264 0.034063 -0.0735269 0.0810354 
2373 1 0.0091631 -0.0138965 -0.0864445 0.0880325 
1982 1 0.0116569 -0.0140353 0.0105415 0.0210712 
3953 2 -0.00310991 0.0179944 0.0571666 0.0600124 
414 1 0.0171905 0.0159343 -0.0449263 0.0506733 
3186 1 0.0767699 -0.0813835 0.0198064 0.113619 
177 1 0.056137 -0.0275126 0.0691085 0.0931895 
1962 1 -0.0396408 0.0483163 0.0706029 0.0942902 
706 1 0.0291299 -0.00535114 -0.0331546 0.0444569 
1544 1 -0.0168411 -0.0633736 0.0255522 0.0703758 
4160 2 -0.0296321 0.00781214 -0.0155152 0.0343484 
19 1 -0.0367025 -0.0204176 -0.0855905 0.0953398 
3624 2 0.00204243 -0.0145435 -0.0550286 0.0569547 
115 1 0.108813 -0.0719907 -0.0188726 0.131829 
1102 1 -0.0747541 -0.00967663 -0.00273872 0.0754275 
1492 1 0.0231431 0.0606735 0.026866 0.0702756 
649 1 0.0492683 0.114765 -0.0479871 0.133795 
113 1 0.0442907 -0.0109851 -0.00900014 0.0465117 
1150 1 0.0272516 -0.0111022 0.0511021 0.0589689 
620 1 -0.0512902 0.00421797 0.000125645 0.0514635 
739 1 -0.0877848 -0.0228087 0.0273173 0.0947241 
2412 1 0.0128483 0.0549394 -0.00558272 0.0566973 
3746 2 0.0772053 0.0274056 -0.140222 0.1624 
1225 1 0.0158655 0.0627505 0.078212 0.101521 
241 1 0.0821729 0.0304612 -0.00520544 0.0877916 
83 1 0.0314115 0.0267156 -0.0227063 0.0470742 
1006 1 0.0275298 0.00571347 -0.0050263 0.0285621 
4046 2 -0.0636903 -0.0742106 -0.0402436 0.105751 
96 1 0.0236205 -0.0968966 -0.00294297 0.0997774 
411 1 0.0566378 0.0578459 0.0744407 0.109979 
2454 1 -0.0520281 0.0103703 -0.0126026 0.0545279 
404 1 -0.0682762 0.0527776 0.0662775 0.108811 
226 1 0.0559561 -0.0199443 0.0742314 0.0950745 
534 1 0.0373419 -0.0160701 0.10671 0.114192 
3538 2 0.00742169 0.0385874 -0.0217992 0.0449364 
761 1 0.064037 -0.0141843 0.0320539 0.0730026 
246 1 0.0879045 -0.0726704 0.029861 0.117898 
2229 1 0.00991575 -0.0908923 0.0192382 0.0934336 
146 1 -0.00508625 0.00124929 -0.0501539 0.0504267 
3608 2 0.0687338 -0.0166316 -0.000160297 0.0707175 
503 1 -0.0374182 -0.0023244 0.0424671 0.0566478 
505 1 0.0903953 -0.0311646 0.000794433 0.09562 
1430 1 -0.0850055 -0.034126 -0.0127293 0.09248 
97 1 -0.0173122 0.036708 -0.0636794 0.0755133 
1723 1 0.033264 -0.00182311 -0.0804674 0.0870909 
3561 2 0.0397886 0.107235 -0.0248245 0.117042 
20 1 -0.0600217 -0.0751396 -0.0154996 0.0974105 
263 1 -0.0591324 0.116167 0.0106794 0.130788 
817 1 0.0827618 -0.0550707 0.0122127 0.100157 
1034 1 0.0229638 0.0172789 0.0163443 0.033061 
353 1 0.0385852 -0.00309667 0.0985925 0.105919 
1260 1 0.0529267 0.0906497 -0.0204736 0.106948 
998 1 0.0205203 0.0494025 -0.0469958 0.071206 
1932 1 0.0783621 -0.121778 -0.0172054 0.145831 
36 1 0.0822647 -0.100907 0.0167982 0.13127 
38 1 -0.0199441 -0.0112497 -0.0755896 0.0789817 
3130 1 -0.00985888 0.0164557 -0.0434878 0.0475308 
1973 1 0.0754282 -0.040231 0.128265 0.154142 
307 1 -0.0140775 -0.0583454 -0.0765904 0.097306 
2714 1 0.0880343 0.0389932 0.0170784 0.0977864 
28 1 0.0373419 0.0126221 0.00478276 0.0397065 
1937 1 -0.00161646 0.0177561 -0.0399361 0.0437353 
562 1 -0.0699963 -0.0995248 0.00403307 0.121741 
3011 1 -0.0619088 -0.0128179 0.0106234 0.0641082 
410 1 0.0839892 -0.0310668 0.0281419 0.0938685 
693 1 0.0619313 0.103738 0.0656801 0.137517 
367 1 -0.0273587 0.00416596 -0.00434682 0.0280134 
318 1 0.0839512 0.0306882 -0.040074 0.0979566 
735 1 0.0848802 -0.0342264 0.0193961 0.0935537 
600 1 -0.0256778 0.0693734 0.0360654 0.0822966 
3590 2 -0.0587158 0.0439852 -0.0502273 0.0889102 
3636 2 0.0420001 -0.101251 0.0463361 0.119008 
26 1 -0.0737529 0.0644898 0.0534741 0.111615 
1199 1 0.0425986 0.0018467 -0.057292 0.0714173 
614 1 -0.0318439 -0.0379876 -0.00949452 0.0504702 
459 1 0.0478133 -0.0665106 -0.053617 0.0979007 
3645 2 0.066514 0.0962201 0.0438686 0.124927 
574 1 0.033984 0.0427406 -0.00432127 0.0547754 
780 1 0.0879947 -0.0104111 -0.00797472 0.0889666 
161 1 -0.052847 0.0355872 -0.0302157 0.0705141 
309 1 0.11175 0.0547066 0.0210716 0.126194 
365 1 0.00593153 -0.118325 -0.0250795 0.121099 
191 1 -0.054551 0.0669579 0.0144028 0.0875592 
1766 1 -0.0029975 0.0775821 -0.046612 0.0905574 
2775 1 0.00880308 -0.081772 -0.0559821 0.0994895 
1030 1 0.0444919 -0.0404934 0.0393236 0.071872 
1505 1 0.0936869 0.117506 0.100161 0.180602 
3872 2 0.00606149 0.0380176 -0.00467287 0.0387803 
580 1 -0.037802 -0.0446937 -0.0169036 0.0609283 
2054 1 -0.112687 -0.0598513 -0.0562105 0.139428 
2064 1 0.0722315 0.00566979 -0.0559262 0.0915274 
529 1 -0.00195118 0.0468937 -0.0742363 0.0878285 
402 1 -0.0108125 0.0476737 0.00132723 0.0489025 
124 1 0.00807566 -0.0749666 0.0292845 0.0808875 
744 1 0.0769425 0.0178792 0.00814921 0.0794117 
185 1 0.0815365 -0.0428379 0.0998057 0.13581 
315 1 -0.0285966 -0.0481802 -0.0470469 0.0731609 
655 1 -0.0422524 -0.0105849 0.10175 0.110681 
765 1 -0.0201575 0.0793192 0.0252921 0.0856595 
140 1 0.0319747 0.0645665 -0.0402591 0.0825349 
59 1 -0.0417684 -0.0213772 0.0331471 0.0574483 
54 1 0.00743582 0.00819051 0.0271918 0.029356 
3506 2 0.0023809 0.0647116 -0.0505311 0.082138 
666 1 -0.0516968 -0.0984895 0.0730076 0.133052 
43 1 0.0504888 0.110292 0.0633622 0.136851 
334 1 0.00181661 0.0168014 -0.000232516 0.0169009 
267 1 0.110284 0.046914 -0.00303411 0.119886 
99 1 0.0562914 0.0525917 0.0849795 0.1147 
1189 1 -0.0770974 -0.048958 -0.118442 0.149564 
201 1 0.0043897 -0.0750353 -0.0531589 0.0920621 
380 1 0.0310028 0.0988353 -0.131646 0.167512 
1777 1 0.0201136 -0.0157151 -0.0409007 0.0482119 
2597 1 0.21234 -0.0236342 -0.0515151 0.219774 
2484 1 0.113263 -0.0524313 -0.0920851 0.155104 
308 1 -0.0462668 -0.0241365 -0.0265407 0.0585457 
3918 2 -0.0350812 0.0582729 0.0214855 0.0713306 
89 1 -0.0636952 0.0423502 -0.0342386 0.0838027 
300 1 -0.00796462 0.0221499 -0.00363376 0.0238171 
3582 2 0.0167496 0.05407 0.0151562 0.0585988 
712 1 -0.0761485 0.0408341 0.0660054 0.108732 
3836 2 -0.010554 0.0314815 -0.0599387 0.0685209 
268 1 0.0211024 -0.00329978 -0.0126039 0.0248004 
788 1 0.00365577 0.0470516 -0.0979071 0.108688 
4091 2 -0.00225882 0.119572 0.012704 0.120266 
371 1 0.0467779 0.0514989 0.064597 0.0949372 
3505 2 0.0153583 -0.0178703 0.0853702 0.0885624 
266 1 0.0401988 -0.0512582 -0.0353067 0.0740939 
3571 2 -0.0543051 0.0312567 0.0410077 0.0748843 
637 1 -0.0078746 -0.000319561 -0.0578785 0.0584126 
157 1 0.00813241 0.00229362 0.0266665 0.0279732 
257 1 0.0281655 0.036282 0.0248813 0.0522375 
571 1 -0.044888 0.0166951 -0.0452174 0.0658656 
665 1 -0.107961 0.0166982 0.132442 0.171684 
448 1 -0.0783039 -0.0433689 0.0223253 0.0922539 
827 1 0.0994127 0.0928561 -0.0106487 0.13645 
3475 2 0.00297826 -0.0120221 0.0329052 0.035159 
73 1 -0.0209084 0.0937058 -0.00568971 0.0961785 
373 1 0.0634581 -0.038457 0.0662818 0.0994945 
247 1 0.00928308 -0.0225182 -0.035644 0.0431711 
107 1 0.0516288 0.014602 0.0188771 0.0568779 
675 1 -0.0220239 0.0580758 -0.099548 0.117336 
434 1 -0.0201824 0.055035 0.0305051 0.0660813 
159 1 -0.0496328 0.0202258 -0.0121433 0.0549542 
32 1 0.0430304 0.0679145 0.00751616 0.0807495 
3579 2 0.0370387 -0.0704678 -0.0330377 0.086192 
394 1 -0.0322744 0.0136619 0.0447158 0.0568136 
260 1 -0.0481391 0.0236668 0.0116144 0.0548852 
3972 2 -0.0404779 0.0229672 0.0969692 0.107559 
1801 1 -0.0655995 0.0133596 0.0629306 0.0918805 
2122 1 -0.0238979 0.00910581 0.0843905 0.0881804 
1966 1 0.0133469 -0.0287098 -0.062015 0.0696294 
291 1 -0.00531506 0.0105999 0.0217796 0.0247984 
2047 1 0.0663706 0.0059956 0.0562522 0.0872084 
1899 1 -0.0122694 0.106337 0.0134079 0.107879 
622 1 -0.0609583 0.0278501 0.00876511 0.0675897 
1993 1 -0.0233516 0.00199864 -0.0185285 0.0298763 
62 1 0.0361588 0.0675919 0.0331442 0.0835144 
2187 1 0.000112533 -0.014182 -0.0965069 0.0975435 
4318 2 0.0469322 -0.0396118 -0.00416794 0.0615556 
44 1 -0.0262692 -0.046889 0.0583174 0.0793068 
824 1 -0.00481736 -0.0102513 0.0329766 0.0348677 
1282 1 -0.0242015 0.0177106 0.093806 0.0984832 
3626 2 0.0563411 0.0502583 -0.0169859 0.077387 
819 1 0.0334496 0.0254883 0.0711791 0.082674 
773 1 -0.0943524 -0.0857544 0.0262182 0.130168 
270 1 0.0313859 -0.069076 0.0262772 0.0802936 
14 1 -0.0688227 0.0243121 -0.0574996 0.0929185 
3540 2 0.0455533 -0.0288587 -0.0130572 0.0554835 
997 1 0.0934943 -0.0252963 -0.00918624 0.0972907 
4275 2 -0.0219396 -0.0656724 -0.0789127 0.104983 
164 1 0.0547425 0.0543829 0.134812 0.155334 
234 1 -0.0373923 -0.0648585 0.0559061 0.0934361 
1125 1 -0.00347858 0.0623936 -0.0643869 0.0897259 
3985 2 -0.076693 -0.00646014 0.0898334 0.118295 
328 1 0.028178 0.0185046 -0.0421618 0.0539819 
3474 2 0.0064939 0.0147233 -0.0225013 0.0276633 
543 1 -0.0703889 -0.0193315 -0.0124854 0.0740553 
293 1 0.0771159 -0.0431294 0.0325282 0.0941546 
3458 2 0.0569476 -0.0519299 0.0601402 0.0977578 
390 1 -0.0186801 -0.046607 0.00184253 0.0502449 
3706 2 0.103684 -0.0992256 -0.0551985 0.153763 
2169 1 0.0712446 0.0666347 0.00852062 0.0979213 
1786 1 -0.0277556 0.022739 -0.0778579 0.085728 
1478 1 0.0140851 -0.0127758 0.121618 0.123096 
87 1 0.00219046 -0.0274504 -0.0190023 0.0334576 
4090 2 0.0016901 -0.0529936 0.0438799 0.0688231 
142 1 -0.0195866 0.0274125 0.0557569 0.0651453 
1650 1 -0.0730606 -0.0519657 -0.0726915 0.115422 
153 1 0.00145178 0.0402426 0.0123749 0.0421273 
374 1 0.0611552 -0.0126086 -0.0217043 0.0661061 
602 1 0.00189945 -0.0509179 -0.0302667 0.0592648 
1277 1 -0.0529013 0.0174342 0.0105902 0.0566979 
76 1 -0.0305384 -0.0404809 0.0653535 0.0827187 
1370 1 0.0521214 -0.0365752 0.0958874 0.115103 
221 1 -0.000971845 0.0384003 -0.0482834 0.0616994 
604 1 -0.00517972 0.0611311 0.0858753 0.105539 
1161 1 -0.0702886 -0.0175629 0.0207987 0.0753759 
1718 1 -0.119191 0.0134866 -0.0924072 0.151418 
178 1 0.0362057 -0.141193 -0.00387064 0.145812 
295 1 -0.080499 -0.0468078 0.022583 0.0958178 
1472 1 -0.060129 -0.0532883 0.0334427 0.0870261 
4159 2 -0.012768 -0.0430205 -0.0337281 0.056137 
3467 2 0.0995986 -0.00897721 0.0261928 0.103376 
3531 2 0.0245049 -0.0381675 0.10916 0.118208 
2720 1 -0.103233 0.0668583 -0.0456336 0.131185 
1851 1 0.00443726 0.0229103 -0.00131293 0.0233729 
732 1 -0.0503127 -0.0893054 0.012288 0.103237 
4009 2 0.0210543 0.104414 -0.0181538 0.108051 
3878 2 0.0197145 0.0215473 -0.0247583 0.0382873 
3185 1 -0.12093 -0.0424023 0.0236573 0.130314 
110 1 -0.0517605 -0.0262674 0.028054 0.0644682 
2963 1 -0.0286551 -0.00785624 -0.0278269 0.0407083 
2608 1 -0.0397826 0.0121704 -0.0145777 0.0440827 
3301 1 -0.00289787 -0.00386491 0.0200743 0.0206474 
3759 2 -0.0245077 0.00754065 -0.0162675 0.0303664 
4171 2 -0.0204624 0.0233387 -0.00208067 0.0311084 
2118 1 -0.00358944 0.049381 -0.0475283 0.0686316 
1742 1 0.0628498 -0.080869 0.0214175 0.104636 
642 1 0.0338276 -0.129894 0.0748739 0.153697 
3366 1 -0.0490176 0.0106193 0.082571 0.0966099 
144 1 0.135006 0.119315 0.0177671 0.181048 
681 1 0.0521725 -0.0486698 -0.0786903 0.106221 
1666 1 0.101899 -0.0454752 -0.0331295 0.1164 
183 1 -0.100389 -0.061226 -0.0289104 0.121088 
694 1 -0.135189 0.015258 0.0732723 0.154524 
444 1 -0.0223259 0.0636355 -0.0942603 0.115901 
869 1 -0.0239611 -0.110654 0.0922665 0.146053 
920 1 -0.00202436 -0.0833778 -0.0462923 0.0953883 
53 1 0.0356599 0.00415212 0.029822 0.0466714 
1450 1 -0.163961 -0.0564045 -0.0307849 0.176104 
1579 1 0.118408 -0.0779877 0.0670191 0.156825 
51 1 0.0862249 0.0312129 0.0271492 0.0956351 
4187 2 -0.0907788 -0.0568956 -0.177903 0.207671 
1694 1 -0.00561101 -0.0961045 0.0794831 0.12484 
1590 1 0.0205699 0.0288839 -0.0484998 0.0600803 
2005 1 -0.026324 -0.000344346 0.125091 0.127831 
736 1 -0.0457083 -0.010239 -0.0612634 0.0771187 
363 1 0.0426197 -0.00173185 0.0393383 0.0580254 
230 1 0.0244686 0.0329769 0.17353 0.178322 
2538 1 0.00125003 0.0107655 -0.0725529 0.0733579 
357 1 -0.0841631 0.00477298 0.0177746 0.0861519 
3849 2 0.112856 -0.0198216 -0.00376921 0.114645 
4102 2 0.0627624 -0.104888 0.0446435 0.13013 
1032 1 0.0698968 -0.0202255 0.0145532 0.0742053 
78 1 -0.00782188 0.0302261 -0.0280427 0.0419665 
564 1 0.117375 0.00479221 0.113885 0.163614 
797 1 0.139778 -0.048136 -0.0541153 0.157428 
1476 1 0.138792 -0.0325706 -0.026314 0.14497 
872 1 -0.0838524 -0.0368809 -0.0624645 0.110875 
475 1 -0.0416803 0.015904 0.0289522 0.0531828 
4119 2 0.114058 -0.0760341 -0.0644857 0.151488 
576 1 -0.138758 0.0454797 0.0646876 0.159708 
507 1 0.05491 -0.0332453 0.0243894 0.0686673 
248 1 0.0835878 -0.0523993 -0.0112813 0.0992969 
3597 2 -0.0561401 0.0372851 0.0390566 0.0778929 
539 1 0.00336985 0.0199195 0.0847578 0.0871323 
63 1 0.067114 0.0193655 0.0369891 0.0790412 
57 1 -0.0914565 0.00181953 -0.00134484 0.0914845 
854 1 -0.000289344 0.0434723 0.0121239 0.0451322 
668 1 0.117551 -0.0801185 -0.119976 0.186095 
385 1 -0.104028 -0.163096 0.0120794 0.193825 
752 1 0.0370886 -0.00116739 -0.00897769 0.0381776 
3650 2 0.0137373 0.0881299 0.0069162 0.0894619 
3736 2 -0.0811847 -0.107167 -0.0449391 0.141758 
254 1 -0.069706 -0.103191 -0.02415 0.126848 
3637 2 -0.0138115 0.00877898 0.0881165 0.0896233 
731 1 0.046939 0.0176276 -0.0623697 0.0800248 
2304 1 0.104505 -0.0558265 -0.0693398 0.13728 
610 1 -0.0834093 -0.0212967 -0.0996431 0.131679 
292 1 -0.0684424 0.0175508 0.0130012 0.071843 
313 1 -0.0836958 -0.00657114 0.0426521 0.0941667 
2133 1 -0.00827572 -0.106975 0.0222938 0.109587 
646 1 -0.0808221 -0.00933532 -0.0431847 0.0921101 