ITEM: TIMESTEP
58
ITEM: NUMBER OF ATOMS
4320
ITEM: BOX BOUNDS pp pp pp
0.0000000000000000e+00 1.9309999999999999e+01
0.0000000000000000e+00 1.9309999999999999e+01
0.0000000000000000e+00 9.6549999999999994e+00
ITEM: ATOMS id type c_displacement[1] c_displacement[2] c_displacement[3] c_displacement[4] 
4012 2 0.0433017 -0.0766437 -0.0273884 0.0921923 
2361 1 -0.0355561 -0.106275 -0.0845467 0.140381 
79 1 -0.0315449 -0.0747875 0.00814377 0.0815756 
781 1 0.0595124 -0.0214695 0.116566 0.132628 
461 1 0.00820392 0.0421077 -0.0178324 0.0464581 
3704 2 0.00823659 -0.0918245 0.0143961 0.0933104 
629 1 -0.064249 0.101506 0.0385142 0.126154 
1571 1 0.0147375 -0.0224081 -0.0336044 0.0429951 
58 1 0.0959317 0.0991697 0.098943 0.169786 
2372 1 -0.0554458 -0.0340485 -0.00949569 0.0657548 
372 1 0.0203914 -0.0673262 -0.0143093 0.0717871 
3504 2 -0.0288383 -0.0849828 0.0436638 0.099801 
4130 2 0.0452383 -0.0230129 -0.0952642 0.107941 
1262 1 0.0616729 0.0838537 -0.0578387 0.119081 
907 1 -0.110394 -0.0645206 -0.141415 0.190651 
3659 2 -0.00869675 0.159809 -0.103157 0.19041 
1298 1 0.0453872 0.0781691 -0.105398 0.138849 
1716 1 0.0465072 0.0696373 -0.0713218 0.109996 
1182 1 0.0450172 0.0244322 -0.0293397 0.0590279 
683 1 -0.021824 -0.0564614 0.0575631 0.0835326 
1958 1 -0.0125372 -0.0551922 0.0488013 0.0747324 
1554 1 0.040439 -0.0837062 -0.0813232 0.123513 
1037 1 0.000209286 -0.14479 0.0211548 0.146327 
749 1 -0.0987063 -0.0992578 0.0422157 0.146209 
3628 2 0.0466868 0.0624425 -0.00851907 0.0784302 
946 1 -0.0597989 -0.01947 -0.0502268 0.0804843 
2232 1 -0.0271016 -0.10039 -0.0948447 0.140741 
7 1 0.0372311 -0.00189661 0.0345033 0.050796 
501 1 -0.0106456 0.037631 -0.066561 0.0771996 
179 1 -0.0355929 -0.0296784 -0.0463013 0.0655093 
714 1 -0.116329 -0.0309453 0.105798 0.16026 
4166 2 0.000381041 -0.0774845 0.0540183 0.0944562 
276 1 -0.0309033 -0.0185017 0.115775 0.121248 
767 1 -0.0430544 -0.0313826 0.0232157 0.0581164 
3890 2 -0.190069 -0.0499441 -0.112545 0.226466 
6 1 0.0197333 0.159682 -0.031303 0.163914 
2086 1 0.00666095 0.0121329 0.0409877 0.0432616 
224 1 0.0911815 -0.0505586 0.00707196 0.1045 
3660 2 0.0152995 -0.000790074 0.0712339 0.0728627 
596 1 -0.0929453 -0.00760087 -0.00803445 0.093601 
1214 1 0.0308061 -0.0673838 -0.0899422 0.11653 
3686 2 0.0185313 0.0133448 0.0359229 0.042567 
427 1 -0.100068 0.0697026 0.100393 0.157959 
350 1 0.0162149 0.067862 -0.0564564 0.0897524 
85 1 -0.0286947 0.040838 0.0580796 0.0765791 
598 1 0.00155453 -0.077047 0.104439 0.129792 
3554 2 0.0494847 -0.0381565 -0.0394737 0.0739109 
29 1 -0.125634 0.0621625 -0.00173395 0.140182 
464 1 0.0125937 0.0102923 -0.110624 0.111813 
3619 2 -0.0644974 0.0466374 0.108465 0.134535 
12 1 -0.0383525 -0.109471 -0.0546255 0.128214 
364 1 -0.140525 -0.0111074 -0.0971365 0.17119 
1849 1 -0.0742685 -0.11168 -0.0724157 0.152422 
3663 2 -0.1791 0.0602707 -0.0220542 0.190252 
3517 2 0.0214969 0.00750775 0.124054 0.126127 
25 1 0.205957 0.00595765 -0.0631956 0.215517 
4163 2 0.0321665 -0.0213274 -0.0281225 0.0477537 
399 1 0.0477294 0.0278899 -0.02674 0.0614082 
4265 2 -0.0610766 0.0717954 0.0659551 0.115043 
527 1 0.0245089 0.0443087 -0.0468371 0.0689758 
200 1 0.0832167 0.0419548 0.104631 0.140118 
1951 1 0.135461 0.110667 0.0407962 0.179615 
644 1 0.0294546 -0.0435035 0.0563902 0.0770713 
193 1 0.0497858 0.0954902 0.0453422 0.116846 
550 1 0.0244841 -0.0296668 -0.0315194 0.0497299 
69 1 0.0252392 -0.0154118 -0.0213608 0.0364805 
842 1 -0.0629216 0.0394734 -0.0438719 0.0862671 
578 1 -0.000229991 -0.0158122 0.0194656 0.0250796 
172 1 -0.0319131 -0.0465249 0.0255848 0.0619483 
381 1 -0.0226121 0.0013684 -0.0328661 0.0399169 
3524 2 0.0519948 -0.0912344 0.127917 0.165499 
688 1 -0.074834 0.108494 -0.0201325 0.133328 
3651 2 -0.0565121 0.0515615 0.0595011 0.0969154 
2367 1 0.0405988 0.00238003 -0.0376095 0.0553932 
1244 1 -0.105472 -0.0437985 -0.00175889 0.114218 
796 1 -0.0598687 0.113263 -0.0381555 0.133673 
691 1 0.0524158 -0.0108875 0.0122948 0.0549283 
421 1 0.072183 0.0494644 0.0531608 0.102387 
597 1 -0.0139717 0.0565715 0.00606509 0.0585861 
3617 2 0.0650902 -0.0106585 -0.038349 0.0762953 
120 1 0.0844031 0.15671 0.0856905 0.197547 
769 1 -0.0776069 -0.0303118 0.048803 0.0965575 
2142 1 -0.00381711 0.042003 -0.0341464 0.054266 
3611 2 0.15798 0.0236242 0.172513 0.23511 
1915 1 -0.0116587 0.0705086 0.060042 0.0933404 
2140 1 0.0178073 -0.0239736 0.105949 0.110078 
3828 2 0.11747 0.0484927 0.0640621 0.142319 
3204 1 -0.0051249 0.0619873 0.0504222 0.0800692 
175 1 0.110774 0.0191865 -0.0444667 0.120898 
2011 1 0.145575 0.0600795 -0.0134236 0.158057 
75 1 0.000183521 0.128767 -0.0554075 0.140182 
547 1 0.00332342 -0.0377792 -0.113117 0.119305 
4316 2 -0.0815339 0.0596176 -0.0687894 0.122205 
559 1 0.0259224 0.0385089 -0.0147924 0.0487208 
717 1 -0.0140524 0.0813497 -0.0588345 0.101374 
242 1 -0.00214486 -0.0412557 0.0858802 0.0952997 
3510 2 -0.0986127 0.026211 0.126273 0.162347 
130 1 0.110281 -0.0215212 0.128531 0.17072 
143 1 -0.00387935 0.0742972 -0.0698699 0.102063 
202 1 -0.151772 -0.102916 -0.0714724 0.196811 
182 1 -0.139079 0.0502726 0.0104819 0.148257 
84 1 0.0425941 -0.0199964 -0.0164972 0.0498626 
3633 2 0.000223972 -0.0601742 0.016048 0.0622778 
35 1 -0.168183 0.0408107 0.128641 0.215638 
3612 2 0.0243617 0.0416346 -0.0116067 0.049615 
40 1 0.15437 0.104922 0.0925001 0.208315 
4005 2 0.0667195 -0.0822407 0.0478201 0.116197 
718 1 -0.101362 -0.0151235 -0.0561362 0.116851 
134 1 -0.0241938 0.00971146 0.109088 0.11216 
511 1 -0.0516414 -0.0418783 0.0031401 0.0665619 
757 1 0.0199079 0.16322 0.00520704 0.164512 
3555 2 -0.072012 0.0840305 0.0510995 0.121893 
3481 2 -0.0257421 -0.0207455 -0.0403541 0.0521679 
135 1 0.0052703 -0.0437246 -0.0830643 0.0940175 
369 1 0.0828557 -0.0419058 0.0637712 0.112641 
2148 1 -0.0992848 -0.0622568 0.0521509 0.12827 
3462 2 0.0549248 -0.0645208 -0.170897 0.190749 
1914 1 0.00764441 0.0579219 0.00422796 0.058577 
3661 2 0.0953914 -0.138246 0.00892451 0.1682 
1871 1 0.0139407 0.0382064 -0.0472936 0.062376 
320 1 -0.0627603 -0.0445779 -0.0491111 0.0913124 
582 1 -0.0363901 -0.104278 -0.0530847 0.12254 
766 1 -0.0232225 0.0161975 -0.00664382 0.0290823 
3552 2 0.0183174 -0.0195136 -0.00566641 0.0273572 
2290 1 -0.0398124 0.039068 0.027635 0.0622497 
1794 1 -0.0113724 0.0706063 0.0914286 0.116077 
753 1 -0.0437917 0.0429851 0.0598848 0.0857416 
396 1 0.0107167 -0.00726215 0.157186 0.157718 
496 1 -0.000430555 -0.0149976 -0.096227 0.0973897 
480 1 -0.0450861 -0.0634596 0.0901095 0.119078 
253 1 0.0485557 -0.00768354 -0.0332862 0.0593689 
4033 2 -0.0141902 0.0215641 -0.0663299 0.071176 
347 1 -0.0365107 0.017936 -0.048453 0.0632647 
586 1 -0.108412 0.0478732 -0.112539 0.163432 
3671 2 0.0261635 0.0212197 -0.0531732 0.062946 
37 1 0.0354371 -0.140359 -0.0130447 0.145349 
782 1 0.030095 -0.139421 -0.045539 0.149726 
481 1 0.0924391 -0.0351424 -0.080142 0.12729 
392 1 -0.027515 0.0418787 -0.0950503 0.10745 
333 1 0.0490898 -0.036343 -0.0206365 0.0644708 
342 1 -0.0274069 -0.0498525 -0.0393727 0.0691854 
1179 1 0.00271627 -0.0423114 -0.0628798 0.0758387 
517 1 0.0154 -0.0964806 -0.0258021 0.101052 
1824 1 0.045339 -0.0541358 0.0992232 0.121785 
34 1 0.0917625 -0.0023759 0.0370952 0.0990053 
398 1 -0.015782 -0.0604462 -0.0826059 0.103569 
170 1 -0.0692758 -0.0673645 -0.0573779 0.11238 
235 1 0.0486304 -0.0985102 0.0918951 0.143227 
3852 2 -0.0374393 0.00491265 -0.0137476 0.040185 
816 1 0.0447746 -0.0397271 -0.0926986 0.110345 
3931 2 -0.147787 -0.134886 0.0857993 0.217708 
274 1 -0.0219605 -0.0576525 -0.023732 0.0661006 
30 1 -0.012615 -0.0392096 -0.0385828 0.0564372 
2066 1 0.080617 -0.0374416 0.147146 0.171909 
1082 1 -0.017664 -0.125992 0.104917 0.164905 
1372 1 0.00667677 -0.0540817 0.106805 0.119903 
1265 1 0.0746054 -0.0387532 -0.0794446 0.115669 
601 1 -0.0282019 0.075082 0.0129306 0.0812395 
540 1 -0.0306682 -0.0632138 -0.0126483 0.0713898 
589 1 -0.0443222 0.148836 0.121106 0.196935 
958 1 0.137399 -0.0190888 0.0237902 0.140744 
504 1 -0.0824213 0.0596734 -0.0344731 0.107436 
1349 1 -0.114852 0.00463026 -0.0670055 0.133049 
9 1 0.0270278 -0.12717 0.0142829 0.130792 
149 1 -0.0150051 0.0635068 -0.0185771 0.0678482 
163 1 0.0120915 -0.176437 0.053107 0.184653 
4247 2 0.0249627 -0.0810169 -0.0492545 0.0980453 
1584 1 0.172599 -0.0112603 -0.0805 0.190781 
3570 2 -0.0374686 -0.100773 -0.0252908 0.110448 
237 1 0.0168563 0.0632518 0.0906667 0.111827 
490 1 0.0111934 -0.0860982 -0.0300361 0.0918714 
50 1 -0.028525 -0.0147678 0.0158535 0.0358203 
152 1 0.0871893 -0.000598131 -0.103108 0.135032 
3652 2 -0.0548585 -0.0393348 -0.00169079 0.0675243 
3823 2 0.0669177 0.0962569 -0.140848 0.183253 
902 1 0.0218226 0.065323 -0.0109268 0.0697332 
3574 2 -0.0372082 0.0611614 -0.0540519 0.0897038 
770 1 -0.0148981 -0.0659797 -0.0562855 0.0879962 
154 1 -0.0410335 -0.0540506 -0.00517518 0.0680588 
116 1 0.0957095 -0.056224 0.0709341 0.131731 
710 1 -0.0915817 -0.161736 -0.102577 0.212292 
1956 1 -0.04554 0.0115774 -0.0123775 0.0485914 
1810 1 -0.109982 -0.0286223 0.0527527 0.125292 
2072 1 -0.0697015 -0.0369602 0.000564697 0.0788966 
1649 1 -0.063698 0.0262982 -0.0934257 0.116092 
186 1 -0.0584273 0.0693447 0.0741143 0.117113 
1063 1 -0.101862 0.126614 -0.169746 0.23499 
432 1 -0.158311 0.0637826 -0.146019 0.224616 
2495 1 -0.0232642 -0.101919 0.0598019 0.120436 
3896 2 -0.00732065 -0.0168551 -0.091574 0.0933996 
4115 2 0.0428303 -0.00938463 -0.0323935 0.0545146 
913 1 0.0547098 -0.0336401 0.0135912 0.0656471 
1068 1 -0.0450801 0.0107378 -0.0310227 0.0557667 
265 1 -0.0878504 -0.0194196 -0.0587394 0.107448 
1287 1 0.0397563 0.10134 0.0225232 0.111165 
3799 2 0.0932833 -0.0787486 -0.134273 0.181473 
554 1 0.0796908 -0.081063 -0.0155228 0.114729 
1414 1 -0.00563434 0.05485 -0.065249 0.0854266 
213 1 0.00978575 0.000781888 0.0466641 0.0476855 
341 1 -0.101394 -0.0428067 -0.031699 0.114534 
3682 2 -0.0184915 0.0662436 -0.0595878 0.0909992 
754 1 -0.084636 0.0388727 0.025409 0.0965399 
112 1 -0.0556257 0.0422066 0.00223204 0.0698613 
1041 1 -0.015122 -0.0238635 0.0198766 0.034543 
119 1 0.0291797 0.0637576 0.0309104 0.0766286 
415 1 -0.0531416 0.0147604 -0.047549 0.0728204 
995 1 -0.0692009 0.0517868 0.0220326 0.0891968 
4128 2 0.0336077 -0.0303122 0.181084 0.186654 
8 1 0.026083 0.0688298 0.00865625 0.0741134 
94 1 0.0388081 -0.0313467 -0.0119687 0.0513024 
48 1 0.0458897 0.00872215 0.054872 0.0720616 
437 1 0.00413588 -0.0560697 -0.0599088 0.0821583 
3866 2 0.0676489 0.0221289 -0.0405456 0.0819146 
2206 1 0.0206626 0.00604462 -0.0164988 0.0271236 
3490 2 -0.0955673 0.0205687 -0.041624 0.106248 
3072 1 -0.0315382 -0.0872801 0.045446 0.103334 
3002 1 0.0809298 0.122893 0.0364233 0.151588 
92 1 0.0488621 0.0917995 0.0971689 0.142325 
335 1 -0.0204193 0.0723066 -0.0355267 0.0831105 
2192 1 -0.0103985 0.0143669 0.0881139 0.089881 
1186 1 0.0337381 -0.0229771 -0.0147856 0.0434145 
1114 1 0.0508665 -0.0148811 0.0265518 0.0592777 
1821 1 -0.0688496 -0.0744001 -0.0676407 0.121864 
1922 1 0.0544244 -0.0891734 0.0512954 0.116384 
451 1 -0.116757 -0.0348705 -0.00971232 0.12224 
3960 2 -0.0062316 -0.0397257 0.0370255 0.0546613 
100 1 -0.0361937 0.0276994 -0.0884439 0.0994965 
1180 1 0.0280147 -0.0507616 -0.0973594 0.113316 
165 1 0.0684666 -0.030198 -0.00871693 0.0753364 
388 1 -0.0723492 -0.0363627 -0.0686201 0.106138 
3742 2 0.0649209 -0.058585 0.0148991 0.0887069 
323 1 -0.134672 0.148007 -0.0266474 0.201873 
288 1 -0.0879101 0.0187275 -0.00845185 0.0902792 
3942 2 -0.088956 0.0822195 0.105253 0.160472 
66 1 0.0670024 0.0236254 0.0643957 0.0958869 
340 1 0.0341599 0.0448766 -0.040759 0.0695852 
138 1 -0.0159079 -0.0170025 0.0212903 0.0315503 
879 1 -0.0170949 -0.0366289 -0.0705633 0.0813209 
3808 2 0.0742006 0.108383 -0.0275406 0.134205 
834 1 0.0289122 0.0253987 0.0107807 0.0399654 
18 1 -0.0790792 -0.0635677 -0.0917477 0.136792 
3679 2 0.0646193 -0.043713 -0.0496822 0.0924922 
52 1 0.0406301 -0.0859849 0.002719 0.0951399 
407 1 0.0160285 0.02225 -0.0686 0.0738779 
360 1 0.0695744 -0.0463554 -0.0781829 0.114464 
2885 1 -0.0917356 -0.0285846 -0.0124872 0.0968939 
3526 2 -0.0291528 -0.229991 -0.0580561 0.23899 
310 1 -0.0834365 -0.0443588 -0.0236232 0.0974034 
326 1 0.121515 -0.0152194 0.0750249 0.143618 
227 1 -0.0305289 -0.0505341 -0.0414188 0.0721195 
2068 1 -0.137436 -0.0195039 -0.120409 0.183759 
456 1 0.0563941 -0.0154576 0.0442175 0.0733104 
279 1 -0.00824018 0.0344753 0.12133 0.126402 
305 1 0.00143264 0.0461886 -0.0533766 0.070601 
49 1 0.000872886 0.0961922 0.0565275 0.111575 
3512 2 0.0198986 -0.1195 0.038601 0.127147 
11 1 -0.0800718 -0.188339 0.0265005 0.206362 
189 1 -0.0874242 0.114884 0.0532713 0.153881 
2271 1 -0.117519 -0.0508398 -0.0206771 0.129704 
319 1 -0.104956 -0.0594934 0.0037985 0.120705 
3566 2 0.0323954 0.0600548 -0.0659783 0.0949167 
71 1 0.0327654 0.000428612 0.0530704 0.0623716 
1560 1 -0.0266968 -0.00886573 0.0529428 0.0599522 
190 1 -0.0551397 -0.000862467 0.100913 0.114998 
123 1 0.080488 0.00316473 0.0980905 0.126926 
27 1 -0.0357823 -0.011941 -0.025821 0.045713 
162 1 0.00511379 0.0299938 -0.0944706 0.0992496 
255 1 -0.112808 0.000718434 -0.0197166 0.11452 
304 1 -0.0781013 -0.0100503 -0.0688485 0.104599 
321 1 0.0137627 -0.0524361 0.146591 0.156294 
682 1 -0.0864181 0.0193898 0.00711146 0.0888517 
3469 2 0.0357768 0.0220972 -0.0836484 0.0936233 
3539 2 0.0211403 0.0206501 0.111282 0.115139 
128 1 0.0518845 -0.0675062 -0.0869508 0.121694 
3562 2 0.109334 0.0210785 0.125796 0.167997 
560 1 -0.162374 -0.0554651 -0.0398258 0.176147 
212 1 -0.0524435 0.0642461 -0.0580834 0.10125 
355 1 0.0199798 0.054895 0.0889688 0.106434 
156 1 0.0147935 0.08396 0.0580732 0.103153 
3620 2 0.0435846 -0.0718198 -0.00833363 0.0844225 
1823 1 0.205466 -0.142372 -0.0911044 0.266057 
1805 1 -0.108695 0.0537541 0.0943104 0.153618 
2599 1 -0.0771009 0.0287127 0.0799511 0.114722 
327 1 0.0860002 0.0106026 0.0315712 0.0922236 
137 1 0.071326 0.0332101 0.0151117 0.0801166 
2334 1 -0.000286562 0.0286088 0.0405821 0.0496533 
3698 2 0.0299119 -0.0658866 -0.0015469 0.0723752 
555 1 -0.0303363 -0.050935 -0.0491334 0.0769984 
4178 2 -0.00654543 -0.0932841 0.0541228 0.108046 
290 1 -0.00779022 0.02195 -0.0122132 0.0262993 
284 1 0.0245045 0.0234994 -0.0365524 0.0498876 
3543 2 -0.0567851 -0.036616 0.0274644 0.0729354 
366 1 0.0334353 -0.0275357 0.0838742 0.0943982 
55 1 0.00404695 0.0494262 -0.012776 0.0512108 
273 1 -0.0335073 -0.0267976 -0.0564697 0.0709202 
3468 2 0.096872 -0.0142813 0.0846619 0.129444 
316 1 0.140785 0.0239159 0.111803 0.181363 
81 1 -0.0581478 -0.0220993 0.00329998 0.0622931 
322 1 0.0427181 -0.0543813 0.0395386 0.0796584 
239 1 0.00575278 0.00695026 -0.0587265 0.0594155 
734 1 -0.0068735 -0.0638155 -0.0627075 0.0897323 
384 1 0.0696274 -0.0819729 -0.0887738 0.139457 
3476 2 0.00284556 0.0978185 0.0133184 0.098762 
311 1 -0.0440707 -0.0768727 -0.0705169 0.113244 
3471 2 0.0299335 0.0366285 0.0572919 0.0742969 
1938 1 0.0669355 -0.0632186 0.00903728 0.0925129 
139 1 0.170441 -0.0225088 -0.0189214 0.172959 
727 1 0.0875959 -0.0856109 0.0251569 0.125041 
1885 1 -0.00758531 0.0351193 -0.0568353 0.0672395 
2184 1 0.173173 0.138157 -0.0765679 0.23439 
2494 1 -0.166921 -0.0252024 -0.145955 0.22316 
2091 1 -0.0169868 0.0179327 -0.0698449 0.074084 
281 1 0.0245883 0.106246 0.122715 0.16417 
863 1 -0.00198582 0.0714862 -0.080295 0.107524 
176 1 -0.0632382 0.051467 -0.0636003 0.103407 
3710 2 9.98998e-05 0.0696942 -0.0555804 0.089143 
3572 2 -0.016111 -0.112853 -0.096219 0.149176 
4197 2 -0.065264 0.0766142 -0.0772772 0.126889 
343 1 -0.0463176 -0.041565 -0.115676 0.131354 
282 1 -0.0535807 -0.0289991 -0.0482521 0.0777181 
1038 1 0.00214187 0.078047 0.061842 0.0996009 
408 1 0.192959 0.0118988 -0.00455473 0.19338 
412 1 0.132346 -0.0426388 -0.0128146 0.139634 
820 1 0.131858 0.0252184 0.0825888 0.157618 
585 1 -0.0957078 -0.0301694 -0.106756 0.146516 
3609 2 0.08272 -0.115059 0.0256458 0.14401 
719 1 -0.0162663 0.0539109 -0.024971 0.0615997 
608 1 0.0361554 0.0628468 0.0534239 0.0900614 
106 1 0.00599705 0.0536837 0.0584145 0.0795623 
1047 1 -0.126675 -0.0444124 -0.0347982 0.138672 
3573 2 0.0267602 0.0458521 -0.0798781 0.0959116 
751 1 -0.0121505 -0.0169194 -0.0827517 0.0853331 
259 1 0.0764686 -0.0327472 0.00106275 0.0831923 
245 1 -0.0743401 -0.043161 -0.015459 0.0873402 
613 1 -0.0571522 -0.0624039 0.112862 0.141062 
4296 2 -0.0208582 0.0551904 0.0277135 0.065185 
272 1 -0.109866 -0.127431 -0.0345049 0.171755 
4239 2 -0.0922405 -0.103358 -0.0784656 0.15921 
88 1 0.0873297 0.10484 0.103496 0.171258 
4 1 0.0732419 -0.00242211 -0.07472 0.104658 
361 1 0.106535 0.105739 -0.153053 0.214373 
358 1 -0.0600832 -0.00422305 0.00898524 0.0608979 
194 1 0.0252291 0.042646 -0.0963759 0.108367 
2373 1 0.0219934 0.0017823 -0.107069 0.109319 
1982 1 0.0410162 0.0200971 0.0414929 0.061708 
3953 2 0.00634503 0.0373485 0.0943472 0.101669 
414 1 0.0238555 0.0266877 -0.0875539 0.0945886 
3186 1 0.0992868 -0.0751301 -0.00565052 0.124637 
177 1 0.0631477 -0.0526671 0.0293304 0.0873025 
1962 1 -0.0301941 0.0702133 0.132416 0.15289 
706 1 0.00453084 0.0262562 -0.036241 0.0449814 
1544 1 0.0114251 -0.117775 0.0704091 0.137691 
4160 2 -0.0314465 0.0492692 -0.0319904 0.0666312 
19 1 -0.0594901 0.0386482 -0.105834 0.127411 
3624 2 -0.0227121 -0.0132255 -0.0749236 0.0793996 
115 1 0.0817453 -0.0554334 -0.0669506 0.119321 
1102 1 -0.0647811 -0.0319307 0.036486 0.0809159 
2048 1 0.0885334 -0.0210887 -0.0251836 0.0944305 
649 1 0.0368576 0.110254 -0.0342658 0.121197 
113 1 0.0173626 -0.0359504 0.00763104 0.0406463 
1150 1 -0.00283004 0.00512813 0.0546466 0.0549596 
620 1 0.00420328 -0.0568852 -0.0148971 0.0589535 
739 1 -0.0569114 -0.0401452 -0.0269461 0.0746769 
2412 1 0.0105562 0.0345518 -0.0137538 0.0386578 
3746 2 0.0998085 0.032581 -0.16931 0.199221 
1225 1 -0.0107579 0.0473003 0.108369 0.118731 
241 1 0.114132 -0.00874612 0.00441009 0.114551 
83 1 0.0226983 -0.00655323 -0.014984 0.0279764 
1006 1 0.0461252 0.00493533 -0.00489497 0.046646 
4046 2 -0.0682405 -0.101215 -0.0342911 0.126796 
96 1 -0.0089053 -0.139419 0.0287552 0.142631 
411 1 0.10126 0.0538087 0.0775323 0.138421 
2454 1 -0.0734706 0.0135787 0.036611 0.0832026 
404 1 -0.083445 0.0823971 0.0794346 0.141641 
226 1 0.0435041 -0.0142579 0.0683685 0.0822809 
534 1 0.0485852 -0.0349773 0.121631 0.135565 
3538 2 -0.0351072 0.05951 -0.0550343 0.0883331 
761 1 0.0637443 -0.0367248 0.0622073 0.0963421 
246 1 0.0596214 -0.0549862 0.0193047 0.0833719 
2229 1 -0.0192522 -0.141775 -0.00684554 0.14324 
146 1 -0.000145573 -0.0667879 -0.0601584 0.089887 
3608 2 0.0443583 -0.000404805 0.0116935 0.0458755 
503 1 -0.0127997 -0.00191414 0.0257721 0.0288392 
505 1 0.126939 -0.0476019 0.017767 0.13673 
1430 1 -0.0718424 -0.0514548 -0.044932 0.0991353 
97 1 -0.0628863 0.0479858 -0.100139 0.127613 
1723 1 0.0349735 0.00639567 -0.091623 0.0982793 
3561 2 0.0627412 0.162273 -0.0519185 0.181561 
20 1 -0.0706044 -0.0509524 0.00750399 0.0873924 
263 1 -0.056244 0.152066 -0.00494949 0.162209 
817 1 0.10214 -0.0755383 0.0197659 0.128567 
1034 1 0.017909 0.0308637 0.0164166 0.0392786 
353 1 0.039742 -0.0241205 0.168752 0.175039 
1260 1 0.0518738 0.117881 -0.0369989 0.133999 
998 1 0.0405784 0.0960427 -0.0658213 0.123301 
1932 1 0.123837 -0.150121 -0.036767 0.198049 
36 1 0.105017 -0.15271 -0.0403317 0.189672 
38 1 0.0241597 0.0231116 -0.043386 0.0547739 
3130 1 -0.0539018 -0.0376953 -0.0567129 0.0868486 
1973 1 0.0904973 0.0160353 0.143458 0.170374 
307 1 0.0485053 -0.0421228 -0.0251311 0.0689831 
2714 1 0.076165 0.0318665 0.0213115 0.0852687 
28 1 0.078677 0.0371342 0.00131303 0.08701 
1937 1 0.00320857 0.0513177 -0.0543475 0.0748161 
562 1 -0.0778212 -0.117406 0.000193285 0.140856 
3011 1 -0.044472 0.00467185 -0.00925862 0.0456652 
410 1 0.0819614 -0.0742169 0.0395174 0.11742 
693 1 0.0748146 0.0925603 0.156643 0.196727 
367 1 -0.0104229 0.00372828 0.00636805 0.0127706 
318 1 0.045583 0.0365519 -0.0956505 0.112084 
735 1 0.126557 -0.00647545 0.0213496 0.128509 
600 1 -0.0121157 0.0486664 0.0266996 0.0568162 
3590 2 -0.0122132 0.0738993 0.010345 0.0756128 
3636 2 0.0515868 -0.0869862 0.053447 0.114387 
26 1 -0.12479 0.0618629 0.0682292 0.155096 
1199 1 0.0274693 0.047199 -0.070417 0.0891115 
614 1 0.00209319 -0.029164 -0.040726 0.0501351 
459 1 -0.0108128 -0.0836031 -0.0634904 0.105534 
3645 2 0.0725305 0.116804 0.0622661 0.150934 
574 1 0.0595817 -0.0337298 0.0753466 0.101808 
780 1 0.124158 0.000430308 0.00207577 0.124176 
161 1 -0.104322 -0.0240001 0.04574 0.11641 
309 1 0.114572 0.0870731 -0.00118304 0.143909 
365 1 0.0356087 -0.152021 -0.0707794 0.17143 
191 1 -0.0709022 0.086073 0.00208848 0.111535 
1766 1 -0.0563936 0.0224315 -0.0366563 0.070902 
2775 1 0.0674575 -0.0613474 -0.0712494 0.115717 
1030 1 0.136247 -0.0931426 0.00277777 0.165065 
1505 1 0.14386 0.160404 0.121611 0.247416 
3872 2 -0.0268271 0.0248879 -0.00287042 0.0367061 
580 1 -0.0366289 -0.0365519 0.00484453 0.051973 
2054 1 -0.0814192 -0.0812369 -0.0521234 0.126275 
2064 1 0.109729 0.0107124 -0.0529878 0.122323 
529 1 -0.0130456 0.0446865 -0.0877721 0.0993529 
402 1 -0.0214033 0.0582064 0.0300922 0.0689321 
124 1 -0.0335635 -0.105753 0.0518887 0.122486 
744 1 0.112216 -0.00637307 0.0387329 0.118884 
185 1 0.071879 -0.0324881 0.0890817 0.118986 
315 1 -0.0230239 -0.0404673 -0.0437297 0.0638748 
655 1 -0.020614 -0.0542825 0.15115 0.161919 
765 1 -0.0123752 0.0625855 0.0246196 0.0683829 
140 1 0.0236237 0.0910533 -0.121695 0.153813 
59 1 -0.0392157 -0.00103322 0.0646909 0.0756561 
54 1 0.00456829 0.0314221 0.01783 0.036416 
3506 2 -0.0285518 0.116589 -0.0992109 0.155727 
666 1 -0.0256041 -0.145506 0.0654537 0.161592 
43 1 0.0830502 0.0900968 0.0832992 0.148167 
334 1 -0.0372136 -0.0311732 0.0246771 0.0544571 
267 1 0.14615 0.0299038 -0.0754972 0.167194 
99 1 0.0689113 0.106059 0.0791737 0.149217 
1189 1 -0.0983961 -0.0339285 -0.165267 0.195311 
201 1 -0.0288017 -0.0889113 -0.0528571 0.107371 
380 1 0.0147323 0.127235 -0.163837 0.207963 
1777 1 0.0121812 -0.0175323 -0.0500826 0.0544429 
2597 1 0.24921 -0.0282656 5.25378e-05 0.250808 
2484 1 0.129728 -0.0460048 -0.0713075 0.155018 
308 1 -0.014205 -0.00979766 -0.0520454 0.0548316 
3918 2 -0.0418102 0.102938 0.0626068 0.12753 
89 1 -0.0890496 0.0603879 -0.0263437 0.110772 
300 1 -0.0114731 0.0036158 0.00616244 0.0135159 
3582 2 0.0316886 0.0184611 -0.000195404 0.0366745 
712 1 -0.0799454 0.0640605 0.0337717 0.107868 
3836 2 -0.0167101 0.0573103 -0.0653972 0.0885465 
268 1 -0.00828781 -0.0169214 0.0138968 0.0234124 
788 1 -0.0237489 0.104444 -0.0921521 0.141296 
4091 2 -0.00305071 0.155668 -0.0105705 0.156057 
371 1 0.0246056 0.0776082 0.115271 0.141124 
3505 2 0.0480281 -0.0201305 0.0430321 0.0675551 
266 1 0.108746 -0.0777756 -0.0738165 0.15272 
3571 2 -0.00782206 -0.04119 0.068499 0.0803113 
637 1 -0.00840628 -0.00058231 -0.0868063 0.0872143 
157 1 -0.0550991 -0.00794903 0.0811166 0.0983819 
257 1 0.022795 0.0175045 0.0105872 0.0306285 
571 1 -0.0285857 0.0412534 -0.017369 0.05311 
665 1 -0.149876 -0.0207657 0.170864 0.228229 
448 1 -0.11322 -0.0825956 0.026365 0.142604 
827 1 0.0851849 0.0992048 0.0117008 0.131282 
3475 2 0.0650134 0.0319795 0.0540514 0.0903935 
73 1 -0.0337973 0.0826602 0.00375402 0.0893815 
373 1 0.0982037 -0.00890312 0.0934073 0.135824 
247 1 0.0280552 -0.0343266 -0.0553932 0.0709494 
107 1 0.0637925 0.0347831 -0.0374548 0.0817448 
675 1 -0.05344 0.0762226 -0.106633 0.14155 
434 1 -0.000200621 0.0660184 0.00731059 0.0664222 
159 1 -0.065642 0.061315 -0.0213727 0.092332 
32 1 0.0690512 0.102614 0.00866284 0.123987 
3579 2 0.0693914 -0.0626222 -0.0758347 0.120364 
394 1 -0.0514733 0.0133648 0.0556556 0.0769783 
260 1 -0.0334412 0.0603099 0.0178381 0.0712306 
3972 2 -0.0676047 0.0414091 0.0919274 0.121391 
1801 1 -0.0623148 0.0331385 0.0655918 0.0963513 
2122 1 -0.0201538 0.00857655 0.139266 0.140978 
1966 1 -0.00889102 -0.0682912 -0.0945358 0.11696 
291 1 -0.0103835 0.0167534 0.0307233 0.0365023 
2047 1 0.0832866 0.0303531 0.0594283 0.106723 
1899 1 0.0226803 0.0680882 0.00200668 0.0717943 
622 1 -0.0476721 0.0801714 0.00123378 0.0932824 
1993 1 -0.0176502 -0.00730229 -0.00702408 0.0203517 
62 1 0.0245724 0.0622085 0.0568493 0.0877812 
2187 1 -0.0488154 -5.00637e-05 -0.107359 0.117936 
4318 2 0.0745487 0.000273966 -0.00190434 0.0745735 
44 1 -0.0123725 -0.0131575 0.0860122 0.0878879 
824 1 0.0350849 -0.010111 0.0614338 0.0714654 
1282 1 -0.00129327 0.00111553 0.111856 0.111869 
3626 2 0.111857 0.0789642 -0.026347 0.139432 
819 1 0.0427866 0.0680525 0.0830988 0.115617 
773 1 -0.120034 -0.142306 0.0430121 0.191074 
270 1 -0.0246891 -0.0579131 -0.0145611 0.0646181 
14 1 -0.0894167 -0.0291465 -0.0272874 0.0979258 
3540 2 0.0587856 -0.00759896 -0.0140991 0.0609284 
997 1 0.0769297 -0.0829528 -0.0360787 0.118748 
4275 2 -0.0328253 -0.0744442 -0.128711 0.152269 
164 1 0.048852 0.0614966 0.158324 0.176734 
234 1 0.0267947 -0.0340428 0.081898 0.0926507 
1125 1 -0.0144594 0.0169403 -0.073535 0.0768339 
3985 2 -0.0610641 -0.0116818 0.064292 0.0894357 
328 1 0.0289491 0.00476984 -0.0464844 0.0549691 
3474 2 0.00730233 0.00415294 -0.0555108 0.0561429 
543 1 -0.0837764 0.00610608 -0.00690027 0.0842816 
293 1 0.103512 -0.0645632 0.075352 0.143391 
3458 2 0.089108 -0.0459347 0.0931419 0.136842 
390 1 -0.00999848 -0.0251141 -0.0590341 0.0649285 
3706 2 0.103002 -0.185198 -0.0895637 0.230064 
2169 1 0.0842921 0.106635 -0.0298353 0.139163 
1786 1 0.0129002 0.0142073 -0.0732972 0.0757677 
1478 1 -0.0184074 0.0299342 0.151346 0.155372 
87 1 0.0258491 -0.0054068 -0.0400725 0.0479918 
4090 2 -0.0264435 -0.0451418 0.040462 0.0661379 
142 1 -0.0044731 0.0281425 0.0385053 0.0479027 
1650 1 -0.0810386 -0.0759467 -0.0902567 0.143113 
153 1 0.0271965 0.0209579 0.00943476 0.0356075 
374 1 0.0538923 -0.0270842 -0.0510149 0.0789966 
602 1 0.01842 -0.0808935 -0.0804803 0.115586 
1277 1 -0.0634002 0.0109083 0.0310939 0.0714521 
76 1 0.00763346 -0.0500599 0.119066 0.129387 
1370 1 0.0620432 -0.0248078 0.096034 0.116993 
221 1 -0.0174206 0.0864424 -0.0222177 0.0909362 
604 1 -0.044307 0.0547157 0.101876 0.123837 
1161 1 -0.0681867 -0.0593543 0.00153006 0.090414 
1718 1 -0.124696 0.03251 -0.134012 0.185917 
178 1 -0.0157361 -0.225266 -0.0217605 0.226861 
295 1 -0.137453 -0.0674753 0.0111463 0.153527 
1472 1 -0.0879102 -0.0218104 0.00523383 0.0907265 
4159 2 -0.0051863 -0.033021 -0.0284639 0.0439031 
3467 2 0.111332 -0.0182254 0.00367878 0.112874 
3531 2 -0.0330097 -0.0751398 0.130965 0.154556 
2720 1 -0.0750579 0.0898286 -0.0677977 0.135275 
1851 1 -0.0175601 0.00673778 -0.00419549 0.0192706 
732 1 -0.0160377 -0.0903827 0.0226463 0.0945468 
4009 2 -0.0410999 0.138473 -0.0173018 0.145476 
3878 2 0.0466369 0.0465428 -0.0342285 0.0742484 
3185 1 -0.187617 -0.0314508 0.0350717 0.193441 
110 1 -0.0589304 -0.0047907 0.03793 0.0702455 
2963 1 -0.0441488 0.00337765 -0.0346736 0.0562386 
2608 1 -0.0406696 0.00561859 -0.0223562 0.0467481 
3301 1 0.0176773 0.0117243 0.0830404 0.0857068 
3759 2 -0.0327431 -0.0408701 -0.0270932 0.058962 
4171 2 -0.0648202 0.0227048 0.0148203 0.0702624 
2118 1 -0.000348589 0.0765134 -0.0296701 0.0820655 
1742 1 0.0264415 -0.0354141 0.0366101 0.05739 
642 1 0.0314667 -0.171625 0.0453132 0.180274 
3366 1 -0.0399924 0.0245822 0.104166 0.114255 
144 1 0.147345 0.168026 0.0240835 0.224773 
681 1 0.0611487 -0.038384 -0.116389 0.136963 
1666 1 0.0892266 -0.0638319 -0.0302378 0.113799 
183 1 -0.11159 -0.0942095 -0.0404507 0.151539 
694 1 -0.162874 0.00731117 0.0707152 0.177713 
444 1 -0.0468831 0.0540208 -0.132911 0.150936 
869 1 -0.0528317 -0.146052 0.132555 0.20419 
920 1 -0.0208863 -0.116955 -0.0312043 0.122835 
53 1 0.0590244 -0.00690766 0.0442043 0.074065 
1450 1 -0.225676 -0.0440552 -0.0796406 0.243338 
1579 1 0.0986626 -0.108051 0.0674918 0.161135 
51 1 0.123974 0.0256955 -0.0226966 0.128627 
4187 2 -0.116691 -0.0813076 -0.176407 0.226599 
1694 1 -0.00541906 -0.124045 0.16582 0.207154 
1590 1 0.0303302 0.0186133 -0.0724807 0.0807454 
2005 1 0.00474895 -0.0350679 0.129204 0.133963 
736 1 -0.0894947 0.00262052 -0.0330804 0.0954489 
363 1 0.0918037 0.00101463 0.0217422 0.0943487 
230 1 0.0208986 0.0306831 0.123773 0.129221 
2538 1 0.0511804 -0.038118 -0.0537638 0.0834443 
357 1 -0.0733456 0.00113072 -0.0179923 0.0755287 
3849 2 0.151493 -0.0419617 -0.069198 0.171754 
4102 2 0.019074 -0.123072 0.0441011 0.132119 
1032 1 0.073365 0.0117559 0.040523 0.0846329 
78 1 0.000131698 0.0584464 -0.0381851 0.0698148 
564 1 0.21567 -0.0368199 0.106014 0.243122 
797 1 0.1555 -0.0598828 -0.050357 0.174074 
1476 1 0.199425 -0.0104957 -0.0297855 0.20191 
872 1 -0.111079 -0.0155896 -0.0934638 0.146004 
475 1 -0.0424973 -0.0291348 0.0246923 0.0571364 
4119 2 0.209725 -0.107299 -0.0965559 0.254599 
576 1 -0.157484 0.0204485 0.0562811 0.168484 
507 1 0.0667284 -0.0791473 0.015551 0.104684 
248 1 0.0740277 -0.0461826 -0.0128216 0.0881892 
3597 2 -0.0734955 0.0639024 0.0886466 0.131694 
539 1 0.017626 -0.00144087 0.0739175 0.0760036 
63 1 0.0701322 0.0200116 0.084189 0.111386 
57 1 -0.0616373 -0.0196407 0.0133657 0.0660572 
854 1 -0.0194541 0.0522664 0.0148736 0.0577189 
668 1 0.111147 -0.122139 -0.11907 0.20359 
385 1 -0.102576 -0.231937 0.0437036 0.257345 
752 1 0.0312645 0.0399523 -0.00902225 0.0515272 
3650 2 -0.01425 0.141219 -0.0334125 0.145816 
3736 2 -0.087227 -0.152444 0.00254333 0.175653 
254 1 -0.121763 -0.14899 0.000545774 0.192418 
3637 2 -0.0109154 0.00697275 0.100751 0.10158 
731 1 0.00948627 -0.00892272 -0.0415092 0.0435042 
2304 1 0.107736 -0.108036 -0.0525298 0.161364 
610 1 -0.152439 0.00357136 -0.11263 0.189568 
292 1 -0.123449 0.0141761 0.0117953 0.124818 
313 1 -0.116075 0.00930435 0.0405481 0.123305 
2133 1 0.0101142 -0.137388 -0.00863895 0.13803 
646 1 -0.104103 -0.024331 -0.0755419 0.130904 
271 1 0.00937192 0.0913072 0.0696527 0.115223 
584 1 -0.0487036 0.0916622 -0.0992767 0.143631 
3649 2 -0.0986371 0.0384217 0.0385406 0.112654 
1148 1 -0.0348566 0.110671 0.139423 0.181388 
779 1 -0.067687 -0.0589408 -0.00272989 0.0897942 
621 1 -0.0995254 0.013077 0.0676844 0.121068 
16 1 -0.0379003 0.0275325 0.141862 0.149396 