ITEM: TIMESTEP
24
ITEM: NUMBER OF ATOMS
4320
ITEM: BOX BOUNDS pp pp pp
0.0000000000000000e+00 1.9309999999999999e+01
0.0000000000000000e+00 1.9309999999999999e+01
0.0000000000000000e+00 9.6549999999999994e+00
ITEM: ATOMS id type c_displacement[1] c_displacement[2] c_displacement[3] c_displacement[4] 
4012 2 -0.000762942 -0.0361209 -0.000702809 0.0361358 
2361 1 -0.00851734 0.00439793 -0.0274834 0.0291072 
79 1 -0.0376625 -0.0515377 0.026719 0.069199 
781 1 0.0479831 -0.00238932 0.00318149 0.0481477 
461 1 -0.011769 -0.0242815 -0.013565 0.0302012 
3704 2 -0.0137555 -0.034101 0.0268 0.0455009 
629 1 -0.0345718 0.0052961 0.0274792 0.0444788 
1571 1 0.00259364 0.011556 -0.0246261 0.027326 
58 1 0.0736949 0.00253879 0.112015 0.134107 
2372 1 -0.0437263 -0.0414315 -0.0211005 0.0638262 
372 1 -0.00541834 0.0133427 -0.0197574 0.0244487 
3504 2 0.00449276 -0.0566354 0.023055 0.061313 
4130 2 -0.0175411 -0.0180632 -0.0259601 0.0361649 
1262 1 0.0198617 0.0632447 -0.0571576 0.0875293 
907 1 -0.0505948 -0.0382892 -0.0904307 0.11047 
3659 2 0.0388293 0.106739 -0.0597141 0.128323 
1298 1 0.0576607 0.0374704 -0.050569 0.0853581 
1716 1 0.00034513 0.0774872 -0.0334893 0.0844152 
1182 1 -0.008987 0.00408969 0.0168719 0.0195488 
683 1 0.00101506 -0.0178495 0.0345503 0.0389019 
1958 1 0.035885 -0.0595138 0.0437794 0.0821356 
1554 1 -1.39604e-05 -0.0519661 -0.029506 0.0597585 
1037 1 -0.0319516 -0.121023 0.0145376 0.126011 
749 1 -0.0701292 -0.0190966 0.0289892 0.0782506 
3628 2 0.0526665 0.037503 0.0337375 0.0729278 
946 1 -0.0262783 0.0105746 -0.0329784 0.0434736 
2232 1 0.0334502 0.00937119 -0.0537932 0.0640347 
7 1 0.0150326 -0.00829068 -0.0036264 0.0175461 
501 1 0.0253871 0.0850237 -0.0635946 0.109169 
179 1 -0.01387 -0.014138 -0.0749824 0.0775539 
714 1 -0.00482906 -0.0273603 0.0858199 0.0902051 
4166 2 0.00561673 -0.0318624 -0.0489229 0.0586534 
276 1 -0.0241147 0.0372891 0.0469458 0.0646212 
767 1 -0.0468699 -0.0101976 0.0587889 0.0758744 
3890 2 -0.0930948 -0.0224076 -0.0537278 0.109797 
6 1 -0.0096068 0.0539343 0.00928684 0.0555647 
2086 1 -0.00989604 -0.00325115 0.0347028 0.0362324 
224 1 -0.00730313 -0.00964353 -0.000575928 0.0121105 
3660 2 0.0336442 0.0355728 0.00819341 0.0496436 
596 1 -0.0410572 -0.00828134 -0.0258141 0.0492 
1214 1 -0.0073124 -0.0331392 -0.0169485 0.0379333 
3686 2 0.0315219 0.0244363 0.00402484 0.040087 
427 1 -0.032512 0.0534128 0.0446556 0.076838 
350 1 0.00356639 0.0425884 0.0188494 0.0467096 
85 1 -0.0241135 -0.0121179 -0.0134129 0.0301365 
598 1 -0.0319953 -0.0075381 0.0736264 0.0806311 
3554 2 -0.000246546 -0.0200281 -0.0166049 0.0260175 
29 1 -0.0111029 0.0470002 0.0312863 0.0575424 
464 1 -0.0346596 0.0225343 -0.0162819 0.0444318 
3619 2 -0.0136268 0.0212446 0.0498659 0.0558895 
12 1 0.0622347 -0.12386 0.055209 0.149206 
364 1 -0.0619159 0.0358019 -0.0298306 0.0774933 
1849 1 -0.0853333 -0.0238644 0.0434834 0.0987021 
3663 2 -0.0603198 0.0286305 -0.0637651 0.0923264 
3517 2 0.0318175 0.0148216 0.041963 0.0547077 
25 1 0.0669674 -0.0317542 -0.00967343 0.0747432 
4163 2 -0.0225251 0.0212104 -0.0108064 0.0327725 
399 1 -0.00380024 0.00497694 -0.00978418 0.0116165 
4265 2 -0.0160133 0.0450777 0.00780899 0.0484707 
527 1 -0.0250178 0.0013529 -0.021112 0.0327634 
200 1 0.0463218 0.00947593 0.0139726 0.0493025 
1951 1 0.0639575 0.0377525 0.0130896 0.0754132 
644 1 0.0282924 -0.0286845 0.0455983 0.0608479 
193 1 -0.00894024 0.0614514 -0.0216037 0.0657489 
550 1 -0.00396711 -0.0241394 -0.00720235 0.0255014 
69 1 -0.0127609 -0.0426354 0.0320905 0.0548673 
842 1 -0.0306717 0.028064 -0.0745546 0.0853623 
578 1 -0.0472015 0.0310046 -0.0125518 0.0578516 
172 1 0.00544706 -0.0699244 0.0162657 0.0719976 
381 1 -0.0147131 0.0673682 -0.0556788 0.0886289 
3524 2 0.0497051 -0.0620825 0.0599493 0.0995929 
688 1 -0.021463 0.0500982 0.00352942 0.0546164 
3651 2 -0.00412444 0.0408808 0.00139496 0.041112 
2367 1 0.0130921 0.0175661 -0.00903088 0.0236965 
1244 1 -0.0326088 0.0411737 0.0435555 0.0682326 
796 1 -0.0757282 0.0481165 -0.0116815 0.0904788 
691 1 0.0411386 -0.00624794 0.0116605 0.0432133 
421 1 0.00416256 0.0105023 0.0838897 0.084647 
597 1 -0.0446217 0.0430211 -0.0164369 0.0641255 
3617 2 0.000743549 0.0148546 -0.0418227 0.0443886 
120 1 0.0333887 0.0146328 0.00720178 0.037159 
769 1 -0.0298889 0.0278881 0.028772 0.0499892 
2142 1 0.00497377 0.00800319 -0.00506153 0.0106962 
3611 2 0.0708209 0.04623 0.0625544 0.105194 
1915 1 -0.0266419 0.0264124 -0.0060515 0.0380004 
2140 1 -0.0212282 0.00790868 0.0556748 0.0601071 
3828 2 0.065164 0.00982781 0.0219742 0.069468 
3204 1 0.00440985 0.0583204 0.0198425 0.0617611 
175 1 0.0456404 0.0348164 -0.0307061 0.0651006 
2011 1 0.0371609 0.0246168 -0.0204252 0.0490317 
75 1 -0.0186749 0.0360849 0.0335583 0.0526976 
547 1 -0.0410199 0.016757 -0.0228881 0.0498727 
4316 2 -0.00491681 0.0185681 0.00436868 0.0196986 
559 1 0.0125359 0.0159648 -0.0337914 0.0394193 
717 1 0.0375827 0.0097538 -0.0136673 0.041163 
242 1 0.00733049 -0.00938935 0.0392348 0.0410032 
3510 2 -0.0210468 0.0106186 0.0190257 0.0302936 
130 1 0.0200495 -0.0354327 0.0534641 0.0672002 
143 1 -0.00789905 0.0162738 -0.0279562 0.0332984 
202 1 -0.0691454 -0.0112162 -0.04533 0.0834367 
182 1 -0.0748881 0.0408445 -0.003938 0.0853932 
84 1 0.0180441 -0.0517638 -0.041259 0.0686103 
3633 2 0.00761678 -0.0444583 0.0411218 0.0610374 
35 1 -0.0828036 -0.0492293 0.0530813 0.109989 
3612 2 0.0104485 0.0408369 -0.0770057 0.0877878 
40 1 0.0727296 0.0507928 0.0375081 0.0963139 
4005 2 0.0359419 -0.0491574 0.0119326 0.0620537 
718 1 0.00502827 0.0401689 -0.0183405 0.0444432 
134 1 0.00381222 -0.0407433 0.0181341 0.0447593 
511 1 -0.0177877 -0.0639206 0.0705625 0.0968572 
757 1 0.0409881 0.0920807 -0.00549575 0.100941 
3555 2 -0.0460321 0.00609763 0.0086922 0.0472408 
3481 2 -0.0148687 0.0221487 -0.0097336 0.0283969 
135 1 0.0100429 -0.0389613 0.0067848 0.0408029 
369 1 0.0254281 -0.0246434 0.0687599 0.0773421 
2148 1 -0.02678 -0.0126854 -0.0216623 0.0367062 
3462 2 0.0316685 -0.0493821 -0.0771293 0.0969041 
1914 1 -0.0257624 -0.0100094 -0.0026627 0.0277665 
3661 2 0.0395509 -0.0470845 0.0162978 0.0636148 
1871 1 0.0179477 0.0122787 -0.016087 0.0270496 
320 1 -0.027496 -0.0200094 -0.0253208 0.0423975 
582 1 -0.0163903 -0.0591764 0.0122796 0.0626201 
766 1 -0.0275226 0.0106201 -0.00739562 0.0304134 
3552 2 -0.00460441 -0.0344285 0.0126496 0.0369667 
2290 1 -0.0258091 0.0380226 0.0411441 0.061682 
1794 1 0.0082123 -0.0164086 0.014777 0.0235594 
753 1 -0.0620286 0.0213228 -0.00462132 0.0657538 
396 1 -0.0109545 -0.0266962 0.0468711 0.0550417 
496 1 -0.00374912 0.0422572 -0.0426263 0.0601392 
480 1 -0.0232669 -0.0383543 0.0429104 0.0620782 
253 1 0.0329006 0.00157834 -0.00855076 0.0340303 
4033 2 0.00211252 0.0159905 -0.0201546 0.025814 
347 1 -0.0402226 0.00456962 0.0406788 0.0573891 
586 1 -0.0305325 0.0191426 -0.0705052 0.0791811 
3671 2 0.0775333 0.0064172 -0.0695736 0.10437 
37 1 -0.00848773 -0.0298074 0.0119608 0.0332202 
782 1 0.0152018 -0.041425 -0.00482119 0.0443888 
481 1 0.0226911 -0.00538844 -0.0421302 0.0481547 
392 1 -0.0369666 0.0189796 -0.0672116 0.07902 
333 1 0.0155324 -0.0310251 -0.0205358 0.0403179 
342 1 0.00833232 0.0178254 -0.0283347 0.0344968 
1179 1 -0.0102429 0.00545871 -0.029741 0.0319256 
517 1 -0.0146111 -0.023983 -0.0268984 0.0388869 
1824 1 0.0380085 -0.0257375 0.0784404 0.0908843 
34 1 -0.00280964 0.0187422 0.0297708 0.0352911 
398 1 0.0153549 -0.0103209 -0.0200127 0.0272544 
170 1 -0.0450412 -0.0320531 -0.028036 0.0619849 
235 1 0.00615997 -0.0860606 0.00881566 0.0867299 
3852 2 -0.0103653 -0.0486512 -0.00635657 0.0501476 
816 1 0.0275292 0.000506763 0.00228477 0.0276285 
3931 2 -0.0481686 -0.0609815 0.0743707 0.107564 
274 1 -0.0263874 -0.028551 -0.0166665 0.0422993 
30 1 0.0279691 0.00331586 -0.0160197 0.0324021 
2066 1 0.0544943 -0.037448 0.0588755 0.0885342 
1082 1 0.0228356 0.00834377 0.0193584 0.0310778 
1372 1 0.00286598 -0.016125 0.0516585 0.0541925 
1265 1 0.0349436 -0.00044145 -0.053125 0.0635887 
601 1 0.0376811 0.0306501 0.0436032 0.0652728 
540 1 0.018037 0.0366469 0.0325729 0.0522429 
589 1 -0.020383 0.0700338 0.0222158 0.0762479 
958 1 0.0296384 0.0117218 -0.0333719 0.0461467 
504 1 -0.0546188 0.0259809 0.00241353 0.0605314 
1349 1 -0.00218639 0.0459457 -0.000749631 0.0460038 
9 1 -0.00167595 -0.0593892 0.0250823 0.0644904 
149 1 0.0153477 0.038145 0.0216131 0.0464512 
163 1 0.023745 -0.00722884 -0.0272632 0.0368696 
4247 2 0.00866008 -0.0229991 -0.0435237 0.0499826 
1584 1 0.0913014 -0.0142275 -0.0825884 0.123932 
3570 2 -0.0261556 -0.03419 -0.00277388 0.0431366 
237 1 0.0130134 0.024253 -0.00332523 0.0277239 
490 1 -0.0141149 -0.0295165 0.0251234 0.0412509 
50 1 -0.0315277 -0.0686132 0.0314261 0.0817885 
152 1 0.00956121 0.0130906 0.0118238 0.0200645 
3652 2 0.0135216 -0.0109248 -0.00294304 0.0176308 
3823 2 -0.00937056 0.0445114 -0.0487807 0.066698 
902 1 0.0216991 0.0458898 -0.0157404 0.0531458 
3574 2 -0.0162851 0.0301395 -0.0380329 0.0511868 
770 1 -0.00351302 -0.0409524 -0.00706091 0.0417048 
154 1 0.00847991 -0.00176813 -0.0257918 0.0272076 
116 1 0.0529477 -0.0438714 0.0125433 0.0698963 
710 1 -0.0505606 -0.0828237 -0.00935989 0.0974872 
1956 1 -0.00880694 0.0412375 -0.068241 0.080218 
1810 1 -0.0727219 -0.02234 0.0627138 0.098593 
2072 1 -0.0150358 -0.0198868 -0.0323729 0.0408603 
1649 1 0.00276599 -0.00816943 -0.0202625 0.0220218 
186 1 -0.0194564 -0.0359735 0.0632827 0.0753482 
1063 1 -0.0168924 0.0186189 -0.0894584 0.0929237 
432 1 -0.0504957 0.0470252 -0.0571291 0.0895819 
2495 1 -0.0633813 -0.0665219 0.0496359 0.104432 
3896 2 -0.00103952 -0.00900071 -0.0210227 0.0228921 
1071 1 -0.0213804 -0.0262474 -0.0347285 0.0484986 
913 1 0.0414801 -0.0586125 0.0271711 0.0767743 
1068 1 0.0557064 0.0217766 0.00707762 0.0602289 
265 1 -0.0360936 0.0193788 -0.00555524 0.0413418 
1287 1 -0.000588158 0.0717522 -0.00734144 0.0721292 
3799 2 0.0125711 -0.0233906 -0.0474024 0.0543337 
554 1 0.0207936 -0.0117613 -0.0540424 0.0590871 
1414 1 -0.019642 0.0312448 -0.0599427 0.070393 
213 1 0.00505642 -0.0343781 -0.003046 0.0348813 
341 1 -0.0375348 -0.0228815 -0.025313 0.0507264 
3682 2 -0.0359067 0.00455489 -0.0387217 0.0530038 
754 1 -0.0272845 0.086817 -0.0102138 0.0915749 
112 1 -0.0371806 0.027147 0.00466406 0.0462721 
1041 1 -0.0233855 -0.0789854 0.00874383 0.0828373 
119 1 -0.00468018 -0.0262468 0.064531 0.0698216 
415 1 0.0207751 0.0318415 -0.0245401 0.0452516 
995 1 -0.0140983 0.0298894 0.0139077 0.0358547 
4128 2 -0.0314275 -0.03184 0.0745749 0.0869649 
8 1 0.052894 0.0457318 -0.00491309 0.070095 
94 1 -0.00396915 -0.0391573 0.013138 0.0414928 
48 1 -0.000651585 0.00987585 -0.00169731 0.0100418 
3998 2 0.0185279 0.0345187 0.0166202 0.0425565 
3866 2 0.0214728 0.0148411 -0.00808845 0.0273269 
2206 1 0.018246 -0.0114135 -0.00802038 0.0229676 
3490 2 -0.0425126 -0.0209293 -0.0149003 0.0496726 
3072 1 0.0079997 -0.0265349 0.0565766 0.063 
3002 1 0.0623378 -0.0099875 0.0249183 0.0678725 
92 1 -0.00121902 0.0818166 0.0487485 0.0952463 
335 1 -0.0348558 0.0480123 -0.0392052 0.0711136 
4034 2 -0.0832406 -0.0722775 0.0258051 0.113221 
1186 1 0.0159853 0.008852 0.00739319 0.0197116 
1114 1 0.0663268 0.0287623 0.0188574 0.0747135 
1821 1 -0.0162622 -0.0320635 -0.0347267 0.0499847 
1922 1 -0.0076262 -0.0591564 -0.00246147 0.0596967 
451 1 -0.0458651 -0.0350688 -0.00774808 0.0582534 
3960 2 0.00393748 -0.0182362 0.00748428 0.0201017 
100 1 -0.0207891 0.032269 -0.0292526 0.0482617 
1180 1 -0.0137114 -0.0387852 -0.0395246 0.0570482 
165 1 0.0568403 -0.000267091 -0.013248 0.0583644 
388 1 -0.0470637 -0.0447057 -0.0241827 0.0692704 
3742 2 0.0579064 -0.0255251 0.0330284 0.0713832 
323 1 -0.0484626 0.0624764 -0.0675133 0.103971 
288 1 -0.028687 0.00627722 0.0144452 0.0327263 
3942 2 -0.0305102 0.0342435 0.0638021 0.0785761 
66 1 0.0280087 0.0309303 0.0318073 0.0524678 
340 1 -0.0113573 -0.0442974 0.0118439 0.0472391 
138 1 -0.0222933 0.0258142 0.0130677 0.0365258 
879 1 0.00832529 0.00427677 -0.0376554 0.0388012 
3808 2 0.0314676 -0.0208704 0.00686493 0.0383785 
834 1 -0.0269811 0.00993735 0.0171698 0.0334893 
18 1 -0.0309671 -0.0378915 -0.061991 0.0789785 
3679 2 0.00347173 -0.0162988 -0.00111689 0.0167018 
52 1 0.0168701 0.002278 -0.00966996 0.019578 
407 1 -0.0536508 -0.00616133 -0.0529473 0.0756293 
360 1 0.0394475 -0.00837983 -0.0889768 0.0976893 
2885 1 -0.0474073 -0.0450769 -0.026016 0.0704003 
3526 2 -0.000464844 -0.0913086 -0.0242641 0.0944787 
310 1 -0.0529771 -0.011548 0.0130453 0.0557684 
326 1 0.037017 -0.0148932 0.0297705 0.049783 
227 1 -0.00843221 -0.0085631 -0.00465756 0.0128888 
2068 1 -0.0375234 -0.0556945 -0.0870516 0.109945 
456 1 0.00584535 -0.0011974 0.0180249 0.0189868 
279 1 -0.0248455 0.0152187 0.0423582 0.0514113 
305 1 -0.0694404 0.00715807 -0.0121816 0.0708632 
49 1 0.0113443 0.0307081 0.0255306 0.041515 
3512 2 -0.00660126 -0.057599 0.0368293 0.0686849 
11 1 -0.0215925 -0.0675666 -0.00526072 0.0711277 
189 1 -0.00647227 0.0425937 0.0493589 0.0655165 
2271 1 -0.0367223 -0.0222127 -0.0211852 0.0478617 
319 1 -0.0535247 -0.0261141 -0.011342 0.0606257 
3566 2 -0.0184594 0.0324766 -0.0230712 0.0439062 
71 1 -0.0286368 0.0132909 -0.00188326 0.0316269 
1560 1 -0.0194709 -0.0269994 0.0395576 0.0517 
190 1 0.00889299 -0.0288091 0.0191007 0.0356916 
123 1 0.0389764 0.0158433 0.0331384 0.0535567 
27 1 -0.0295933 0.00192386 -0.0233896 0.0377696 
162 1 -0.0095526 -0.00333863 -0.0603396 0.0611823 
255 1 -0.0526413 0.0135022 -0.0295401 0.0618549 
304 1 -0.0583033 0.00661237 -0.0279519 0.0649947 
321 1 -0.00105683 -0.0555149 0.0894819 0.105309 
682 1 -0.0292851 0.0210562 0.000630117 0.0360746 
3469 2 0.0626168 0.0560749 -0.0574313 0.101802 
3539 2 0.0298675 0.0424019 0.0347451 0.0624277 
128 1 0.0483585 -0.0229374 -0.0151616 0.0556287 
3562 2 0.0705049 0.0249984 0.0274917 0.0796972 
560 1 -0.05716 -0.0361981 0.0167732 0.0697058 
212 1 0.0119491 0.0218889 0.0111248 0.0273069 
355 1 0.0077209 0.0438099 0.0792131 0.0908495 
156 1 0.0635506 0.0234096 0.0417234 0.0795458 
3620 2 -0.018277 -0.0193108 0.00765778 0.0276694 
1823 1 0.0886892 -0.0763248 -0.054123 0.128921 
1805 1 0.00630882 0.0542888 0.0591383 0.0805258 
2599 1 -0.00147817 0.0199203 -0.0137423 0.0242457 
327 1 -0.0108355 0.0139548 -0.00812562 0.0194466 
137 1 0.0414782 -0.0128631 0.0595223 0.0736804 
2334 1 -0.0079304 0.031334 0.0155462 0.0358663 
3698 2 0.0228123 -0.0549261 0.0174669 0.0619869 
555 1 0.0149897 -0.0259384 -0.0251135 0.0390919 
4178 2 0.0305059 -0.0150205 0.0204313 0.0396695 
290 1 -0.00402098 0.0467036 -0.020063 0.0509894 
284 1 -0.0305755 -0.010446 -0.0435433 0.0542218 
3543 2 0.029427 -0.00192783 0.0196832 0.0354556 
366 1 0.0187852 -0.0325259 0.00340773 0.0377152 
55 1 -0.0208795 0.0142719 -0.00180507 0.0253555 
273 1 -0.011415 -0.03871 0.00345452 0.0405056 
3468 2 0.0323848 0.0151857 0.0105501 0.0372919 
316 1 0.0435908 -0.0378382 0.0758016 0.0952773 
81 1 -0.0511714 0.0275717 0.0304163 0.0656038 
322 1 0.0226653 0.000690633 -0.0155066 0.0274709 
239 1 -0.0234226 0.0166503 -0.0335003 0.0441376 
734 1 -0.0471335 -0.0594532 -0.0237149 0.0794899 
384 1 0.0605338 -0.022071 -0.0202799 0.0675481 
3476 2 -0.0136589 0.0557635 0.00613319 0.0577386 
311 1 0.026262 -0.0295246 -0.0427916 0.0582453 
3471 2 -0.0224963 0.0112284 -0.00393408 0.0254487 
1938 1 -0.00264722 -0.0336974 -0.0129379 0.0361927 
139 1 0.0736159 -0.0299009 -0.0137127 0.0806313 
727 1 0.0174865 -0.0154207 0.0380849 0.0446546 
1885 1 0.00502586 0.0352517 -0.0543281 0.0649575 
2184 1 0.0371935 0.124766 -0.0784224 0.151987 
2494 1 -0.0767428 -0.0551037 -0.0691564 0.117083 
2091 1 -0.0329833 -0.0177677 -0.0275367 0.0464958 
281 1 0.0390005 0.0447865 0.0589709 0.0836925 
863 1 0.00526882 0.0748195 0.0103981 0.0757221 
176 1 -0.062421 0.0415824 -0.0310396 0.0811723 
3710 2 -0.00366125 0.0423204 -0.0185995 0.046372 
3572 2 0.00527898 -0.0465796 -0.0140707 0.0489439 
4197 2 -0.0499419 0.0157518 -0.00265597 0.0524344 
343 1 0.00301114 -0.026015 -0.0670211 0.0719561 
282 1 -0.00223675 -0.0181064 0.00529466 0.0189968 
1038 1 -0.0122407 0.0199932 -0.00333056 0.0236782 
408 1 0.098735 0.0764765 -0.0234829 0.127078 
412 1 0.0818063 -0.0362021 -0.00455335 0.0895745 
820 1 0.0516001 -0.00102151 0.00536665 0.0518885 
585 1 -0.0283926 -0.0296666 -0.0337533 0.0531558 
3609 2 0.0332891 -0.0244978 -0.000886536 0.0413411 
719 1 -0.0255155 0.0423609 -0.012483 0.0510031 
608 1 0.00456934 -0.0331476 -0.0117959 0.0354793 
106 1 -0.0115802 0.0438379 0.0194629 0.0493424 
1047 1 -0.0724999 -0.0149909 -0.0024814 0.0740751 
3573 2 0.000931156 0.0137065 -0.0335176 0.0362238 
751 1 -0.0277008 -0.0103813 -0.0143151 0.0328638 
259 1 0.0390539 -0.049498 0.0145438 0.0647054 
245 1 -0.0515714 -0.00224323 -0.0480907 0.0705504 
613 1 -0.0251905 0.00296612 0.0952065 0.0985274 
4296 2 -0.0227639 0.0227912 0.01713 0.0364839 
272 1 -0.056286 -0.0586169 -0.00161651 0.0812813 
4239 2 -0.00431348 -0.0680956 -0.0311449 0.0750041 
88 1 0.0358104 0.0619294 0.0375373 0.0807879 
4 1 0.0896461 -0.005203 -0.0377514 0.0974098 
361 1 0.0353098 0.064616 -0.084208 0.111862 
358 1 -0.0117768 -0.0216832 0.000646428 0.0246835 
194 1 -0.00368498 0.0201631 -0.0465971 0.0509059 
2373 1 -0.00429338 -0.0281426 -0.0380816 0.0475463 
1982 1 -0.00496793 -0.0214792 -0.0327573 0.0394852 
3953 2 -0.0143093 0.0121082 0.0184728 0.0263174 
414 1 0.00736364 0.00757357 -0.0209191 0.0234349 
3186 1 0.0411781 -0.0507653 0.0266882 0.0706046 
177 1 0.0447375 -0.00974881 0.0639741 0.0786713 
1962 1 -0.0275485 0.029123 0.0298994 0.0500104 
706 1 0.0315986 -0.00660045 -0.00961041 0.0336808 
1544 1 -0.0205369 -0.0207936 -0.00743613 0.0301568 
4160 2 -0.0114348 0.000114232 -0.00641833 0.0131134 
19 1 -0.0155907 -0.0452497 -0.0505388 0.0696044 
3624 2 0.0111182 -0.0182022 -0.0317088 0.0382149 
115 1 0.0849971 -0.051674 -0.00461426 0.0995791 
1102 1 -0.0595031 0.00927508 -0.0153576 0.0621491 
1492 1 0.0272611 0.0145657 0.0335313 0.0456035 
649 1 0.0442752 0.0852325 -0.0403668 0.104184 
113 1 0.0110505 0.0174962 -0.00351431 0.0209901 
1150 1 0.0332695 -0.0140253 0.028874 0.0462307 
620 1 -0.0720209 0.0328133 0.0213767 0.0819797 
739 1 -0.0427793 -0.0113206 0.0216273 0.0492541 
2412 1 0.00317555 0.0561871 0.00624376 0.056622 
3746 2 0.0488049 0.0129313 -0.0857527 0.0995121 
1225 1 0.0249403 0.0482027 0.0502527 0.0739653 
241 1 0.0418852 0.0439992 -0.0109103 0.0617198 
83 1 0.0256472 0.0384606 -0.0178578 0.049557 
1006 1 0.0102028 0.00401081 -0.00612322 0.0125569 
4046 2 -0.0732339 -0.0144364 -0.0337264 0.081909 
96 1 0.0321082 -0.0557802 -0.0110327 0.0653 
411 1 0.0338185 0.0363363 0.0361909 0.0614313 
2454 1 -0.0136328 -0.00307617 -0.0281973 0.0314707 
404 1 -0.0268267 0.0269927 0.0453413 0.0591955 
226 1 0.0499121 -0.011993 0.055998 0.075966 
534 1 0.0273104 -0.00677954 0.0647262 0.0705783 
3538 2 0.0194635 0.0267344 0.0102873 0.0346321 
761 1 0.0451081 0.00971928 0.00872298 0.0469606 
246 1 0.0670769 -0.056186 0.0301254 0.0925403 
2229 1 0.0240018 -0.0363826 0.0243002 0.0499027 
146 1 -0.0041057 0.0337126 -0.0246684 0.0419753 
3608 2 0.0406401 -0.0283455 -0.0126733 0.0511439 
503 1 -0.0283546 -0.00444209 0.0325724 0.0434128 
505 1 0.0466802 -0.013929 -0.0160926 0.0513033 
1430 1 -0.0511765 -0.023802 0.00416374 0.0565942 
97 1 -0.00238509 0.0287577 -0.0245145 0.0378636 
1723 1 0.0229449 -0.0197716 -0.0577105 0.0651758 
3561 2 0.00761674 0.0556442 -0.00510168 0.0563943 
20 1 -0.0344654 -0.0600076 -0.0259707 0.0739139 
263 1 -0.0479022 0.0594932 0.0235354 0.0799248 
817 1 0.0521474 -0.0336105 -0.00227284 0.0620821 
1034 1 0.0129808 0.0118485 0.0121513 0.0213669 
353 1 0.0288369 -0.0105991 0.0350213 0.0465875 
1260 1 0.0339661 0.046028 -0.0154608 0.0592563 
998 1 0.0111357 0.0217527 -0.0297926 0.0385328 
1932 1 0.0460546 -0.0643357 0.000400724 0.0791219 
36 1 0.0415777 -0.0525438 0.0352781 0.0757238 
38 1 -0.0373552 -0.0253428 -0.0488483 0.0665118 
3130 1 0.00727244 0.0301748 -0.0253996 0.0401067 
1973 1 0.0520807 -0.04935 0.0865551 0.112426 
307 1 -0.0313415 -0.0410368 -0.0671553 0.0847121 
2714 1 0.0738241 0.0302499 0.0120761 0.08069 
28 1 0.00164132 -0.00927637 -0.0130823 0.0161211 
1937 1 -0.00374255 6.52099e-05 -0.0258804 0.0261497 
562 1 -0.0455016 -0.0585911 -0.00125219 0.0741949 
3011 1 -0.0546327 -0.0217307 0.0167519 0.0611357 
410 1 0.0649068 -0.0111543 0.0180078 0.0682758 
693 1 0.040813 0.0772181 0.00702779 0.0876226 
367 1 -0.026577 0.00259073 -0.00884157 0.0281287 
318 1 0.0757529 0.02041 -0.00536422 0.0786374 
735 1 0.0449005 -0.0337993 0.0242704 0.0612168 
600 1 -0.0286492 0.0453646 0.0420403 0.0681624 
3590 2 -0.0550255 0.0245467 -0.0722149 0.0940497 
3636 2 0.0314928 -0.0834046 0.0230396 0.0920812 
26 1 -0.0312433 0.0476364 0.0318645 0.0652742 
1199 1 0.0372591 -0.0116646 -0.0219469 0.044788 
614 1 -0.0138203 -0.029892 -0.00841083 0.0339893 
459 1 0.0497071 -0.0212369 -0.0319203 0.062775 
3645 2 0.0425354 0.0603938 0.0223552 0.0771779 
574 1 0.0133195 0.0479878 -0.0333345 0.0599285 
780 1 0.0547986 -0.0104675 -0.00929846 0.056559 
161 1 -0.000260461 0.0540049 -0.0377563 0.0658948 
309 1 0.0719002 0.0277141 0.014824 0.0784695 
365 1 -0.0108058 -0.0503376 0.00292862 0.0515676 
191 1 -0.0305494 0.053857 0.00292654 0.0619871 
1766 1 0.0281956 0.0766769 -0.0362879 0.0893933 
2775 1 -0.0238409 -0.0613787 -0.0299186 0.0723247 
1030 1 -0.00589117 -0.0146499 0.0439926 0.0467405 
1505 1 0.0410204 0.0715355 0.0607228 0.102407 
3872 2 0.00189028 0.0309943 -0.00364346 0.0312649 
580 1 -0.0274071 -0.0396882 -0.0262909 0.0549319 
2054 1 -0.0920276 -0.0370827 -0.0397239 0.106875 
2064 1 0.0293603 0.00226919 -0.0352398 0.0459241 
529 1 0.0095013 0.0262626 -0.044981 0.0529461 
402 1 0.0027528 0.0357392 -0.0250019 0.0437031 
124 1 0.0147761 -0.0390961 0.00167159 0.0418286 
744 1 0.028193 0.0328109 -0.00563489 0.0436251 
185 1 0.0611449 -0.0350789 0.0800519 0.106665 
315 1 -0.00860828 -0.0363673 -0.0384044 0.0535872 
655 1 -0.0383301 0.0131269 0.0440684 0.0598626 
765 1 -0.0187031 0.0697447 0.0225758 0.0756557 
140 1 0.0197859 0.0374837 0.00799212 0.0431322 
59 1 -0.0260463 -0.0240902 0.0156092 0.0387608 
54 1 0.0119181 0.0143085 0.0584666 0.0613605 
3506 2 0.0257206 0.0207756 -0.0167653 0.0370709 
666 1 -0.0403551 -0.0524071 0.0421762 0.0784466 
43 1 0.0165188 0.0981201 0.0333271 0.104934 
334 1 0.0169348 0.0332861 0.003747 0.0375338 
267 1 0.0531906 0.0383539 0.0218471 0.0691198 
99 1 0.0474826 -0.00714223 0.0669298 0.0823723 
1189 1 -0.0526133 -0.0421447 -0.0707214 0.0977029 
201 1 0.0196334 -0.0331789 -0.0362224 0.0528997 
380 1 0.0318998 0.0535594 -0.0724712 0.0955944 
1777 1 0.0218883 -0.0126773 -0.031015 0.0400218 
2597 1 0.123919 -0.00794742 -0.0502928 0.133972 
2484 1 0.0846283 -0.0153522 -0.0592487 0.104442 
308 1 -0.0461448 -0.0255698 -0.0218998 0.0571206 
3918 2 -0.0198946 0.0320496 -0.00878539 0.0387318 
89 1 -0.0365913 -0.00897439 -0.0293073 0.0477324 
300 1 -0.00494239 0.0266671 -0.00723262 0.0280691 
3582 2 0.0129959 0.0716962 0.00331817 0.07294 
712 1 -0.0477704 0.0221827 0.047398 0.0708565 
3836 2 -0.00275688 0.0145154 -0.0345236 0.0375523 
268 1 0.0265994 0.0105561 -0.0187812 0.03423 
788 1 0.0201213 0.000884752 -0.0651901 0.0682305 
4091 2 -0.0137665 0.0598051 0.0420958 0.0744193 
371 1 0.0402074 0.00259351 0.00215829 0.0403488 
3505 2 0.00348004 -0.0159445 0.0652814 0.0672904 
266 1 -0.00387013 -0.0158169 -0.0119673 0.0202081 
3571 2 -0.0673123 0.0697606 7.44179e-05 0.0969407 
637 1 -0.0147984 0.00403847 -0.0140404 0.0207951 
157 1 0.0573515 -0.000888041 0.00298037 0.0574357 
257 1 0.00943423 0.0376844 0.0455765 0.059886 
571 1 -0.0418439 -0.00395105 -0.0433158 0.0603555 
665 1 -0.0498992 0.0339542 0.0700392 0.092457 
448 1 -0.0563068 -0.0130331 0.00975497 0.058613 
827 1 0.0793728 0.053952 -0.008425 0.0963423 
3475 2 -0.0177082 -0.0194943 0.0179456 0.0318693 
73 1 -0.010602 0.0699093 -0.0136897 0.0720217 
373 1 0.0218933 -0.0435064 0.0326146 0.058616 
247 1 -0.00527782 -0.00600854 -0.00994201 0.0127594 
107 1 0.0278661 0.00644599 0.029963 0.0414229 
675 1 0.00370748 0.0313039 -0.0703707 0.0771085 
434 1 -0.00709014 0.0375067 0.0254155 0.0458582 
159 1 -0.0104781 0.00166358 -0.00757349 0.0130352 
32 1 0.0104206 0.0360422 -0.00333523 0.0376664 
3579 2 0.00245964 -0.0576502 -0.00975117 0.0585207 
394 1 -0.0242461 0.00105632 0.0228015 0.0333001 
260 1 -0.0442504 -0.000540019 0.0107706 0.0455455 
3972 2 -0.0216302 0.00907266 0.0754038 0.0789678 
1801 1 -0.0496058 -0.0028289 0.0411842 0.0645359 
2122 1 -0.00849318 0.0251617 0.0364424 0.0450921 
1966 1 0.0252808 0.00807872 -0.0358039 0.044568 
291 1 -0.00128149 -0.00555292 0.018791 0.0196361 
2047 1 0.040247 -0.00391685 0.0253529 0.0477277 
1899 1 -0.0280581 0.109086 0.0152242 0.113661 
622 1 -0.051146 0.00519742 0.00910911 0.0522102 
1993 1 -0.0118998 0.013665 -0.00671125 0.019323 
62 1 0.037632 0.0375428 0.00765325 0.0537047 
2187 1 0.0259512 -0.000239682 -0.0640441 0.0691026 
4318 2 0.0251178 -0.0354746 -0.0051728 0.0437734 
44 1 -0.0324407 -0.0463824 0.0275502 0.0629504 
824 1 -0.0287192 -0.0083049 0.00801536 0.0309517 
1282 1 -0.0317134 0.000894007 0.0606143 0.0684152 
3626 2 0.016325 0.0233044 -0.00718656 0.029347 
819 1 0.0304759 -0.00215919 0.0201164 0.0365802 
773 1 -0.0479027 -0.0419635 0.0117125 0.0647517 
270 1 0.0424634 -0.0542129 0.0405593 0.0799202 
14 1 -0.0429621 0.0407112 -0.0410306 0.0720185 
3540 2 0.0282353 -0.0432295 -0.00499168 0.0518742 
997 1 0.0582678 0.0127356 0.0154406 0.0616096 
4275 2 -0.00996849 -0.0488277 -0.038908 0.0632246 
164 1 0.0262954 0.0368323 0.0909509 0.101588 
234 1 -0.0490425 -0.0460803 0.0242244 0.0715219 
1125 1 0.000151443 0.0599513 -0.0402548 0.0722124 
3985 2 -0.0538827 -0.00673317 0.0579917 0.0794463 
328 1 0.0115957 0.00557588 -0.0303985 0.0330094 
3474 2 0.00613346 0.0181687 -0.00553574 0.0199591 
543 1 -0.0339522 -0.0302644 -0.00172503 0.0455155 
293 1 0.03464 -0.0215238 0.0068728 0.0413574 
3458 2 0.0331673 -0.0429048 0.0273838 0.0607517 
390 1 -0.0187224 -0.0424176 0.029128 0.054756 
3706 2 0.0893669 -0.0270482 -0.0484011 0.10517 
2169 1 0.0411015 0.0142748 0.01797 0.0470746 
1786 1 -0.0361465 0.0280234 -0.0473228 0.0658128 
1478 1 0.0225828 -0.0191666 0.0627391 0.0693797 
87 1 -0.0194377 -0.0267801 -0.00347829 0.033273 
4090 2 -0.00379276 -0.0434823 0.046399 0.0637021 
142 1 -0.0189564 0.016119 0.0467128 0.0529268 
1650 1 -0.0480206 -0.0197181 -0.0485248 0.0710593 
153 1 -0.00193549 0.0260761 0.0152953 0.0302929 
374 1 0.0250016 -0.0238422 0.0109362 0.0362371 
602 1 -0.00961857 -0.0159101 -0.00273666 0.018792 
1277 1 -0.0381439 0.00422603 0.00738002 0.0390804 
76 1 -0.0472725 -0.0162737 0.0229841 0.0550254 
1370 1 0.0265108 -0.0327082 0.0653689 0.0777544 
221 1 0.0179321 -0.00966627 -0.0522935 0.0561214 
604 1 0.000163635 0.0479074 0.0469934 0.0671083 
1161 1 -0.0404404 0.0009787 0.0466714 0.0617625 
1718 1 -0.0697707 0.000262306 -0.03902 0.0799411 
178 1 0.0441663 -0.0684662 -0.0011518 0.0814838 
295 1 -0.0371453 -0.0318091 0.0103971 0.0499969 
1472 1 -0.0398079 -0.0506807 0.0310475 0.0715343 
4159 2 -0.0118729 -0.0364216 -0.0245894 0.0455208 
3467 2 0.0634577 -0.00346126 0.0182508 0.0661207 
3531 2 0.0437476 -0.00807774 0.0791249 0.0907736 
2720 1 -0.0935056 0.0325123 -0.0147302 0.100087 
1851 1 0.0169091 0.0311644 0.00102742 0.035471 
732 1 -0.0450697 -0.0528914 0.00392138 0.0695999 
4009 2 0.0400752 0.0565929 -0.0181524 0.0716818 
3878 2 0.00651838 0.00888037 -0.0149685 0.0185851 
3185 1 -0.0422208 -0.0216979 0.00194618 0.0475098 
110 1 -0.0567427 -0.0139508 0.0134393 0.0599581 
2963 1 -0.0126657 0.00777411 -0.00886529 0.0173046 
2608 1 -0.0218028 0.00632459 0.00721986 0.023822 
3301 1 -0.000978079 -0.0184647 -0.00376641 0.0188703 
3759 2 -0.0152802 0.0335486 -0.0105473 0.0383437 
4171 2 0.00578515 0.0156727 0.00125984 0.0167538 
2118 1 -0.0179751 -0.000128998 -0.0610061 0.0635993 
1742 1 0.0511108 -0.0720464 0.0122872 0.0891851 
642 1 0.0320765 -0.0718246 0.0558353 0.0964637 
3366 1 -0.0496731 0.00920414 0.0430802 0.066393 
144 1 0.0838107 0.0469614 0.00819168 0.0964195 
681 1 0.0350299 -0.0339087 -0.0373346 0.0614066 
1666 1 0.0683437 -0.0235741 -0.0313636 0.0788053 
183 1 -0.0606216 -0.0289263 -0.0126565 0.0683512 
694 1 -0.0745226 0.0153371 0.0549884 0.0938753 
444 1 -0.00954341 0.0575698 -0.0488427 0.0760984 
869 1 -0.00427293 -0.068912 0.0489938 0.0846612 
920 1 -0.00459473 -0.046487 -0.0281592 0.0545444 
53 1 0.0227692 0.00579143 0.0176241 0.0293698 
1450 1 -0.102765 -0.0489885 0.00753336 0.114093 
1579 1 0.0807679 -0.040043 0.0463556 0.101369 
51 1 0.0424818 0.0117236 0.0328775 0.0549825 
4187 2 -0.0498056 -0.0268474 -0.125178 0.137372 
1694 1 0.0112686 -0.058023 0.0218527 0.0630174 
1590 1 0.00650867 0.0337977 -0.0132022 0.0368639 
2005 1 -0.0228218 0.00574743 0.103705 0.106342 
736 1 -0.0179279 -0.0156719 -0.0557088 0.0605846 
363 1 0.0123262 -0.00226589 0.030805 0.0332569 
230 1 0.0105811 0.0115095 0.124407 0.125386 
2538 1 -0.0139226 0.0199891 -0.0524319 0.0578144 
357 1 -0.0684758 0.000461514 0.0183227 0.0708864 
3849 2 0.0687516 0.000653669 0.03146 0.0756105 
4102 2 0.0600145 -0.0672055 0.0281755 0.0944043 
1032 1 0.0475132 -0.0198242 0.00265323 0.0515513 
78 1 -0.00516099 0.00537229 -0.00706525 0.0102672 
564 1 0.0480866 0.00439607 0.0788575 0.092467 
797 1 0.089266 -0.0236846 -0.0320047 0.0977429 
1476 1 0.0795156 -0.0244045 -0.0193319 0.0853934 
872 1 -0.0459092 -0.0309035 -0.0194018 0.0586439 
475 1 -0.0280333 0.00268845 0.00741844 0.0291226 
4119 2 0.0404458 -0.0355934 -0.0228143 0.0585085 
576 1 -0.0867109 0.0401785 0.0508687 0.108262 
507 1 0.0368185 -0.00254964 0.022883 0.043425 
248 1 0.0672911 -0.0371926 -0.00798966 0.0772995 
3597 2 -0.0326765 0.0146055 -0.00352368 0.0359652 
539 1 -0.00331941 0.0230047 0.0682503 0.0720995 
63 1 0.0561607 0.00932383 0.00745045 0.0574149 
57 1 -0.0842523 0.00516061 -0.0103038 0.0850367 
854 1 -0.00395625 0.0157078 0.00949487 0.0187761 
668 1 0.0905218 -0.0343284 -0.0831209 0.1276 
385 1 -0.0772755 -0.0788935 0.00553876 0.110573 
752 1 0.0280781 -0.025668 -0.00750626 0.0387759 
3650 2 0.0380648 0.029439 0.0219546 0.0528922 