ITEM: TIMESTEP
12
ITEM: NUMBER OF ATOMS
4320
ITEM: BOX BOUNDS pp pp pp
0.0000000000000000e+00 1.9309999999999999e+01
0.0000000000000000e+00 1.9309999999999999e+01
0.0000000000000000e+00 9.6549999999999994e+00
ITEM: ATOMS id type c_displacement[1] c_displacement[2] c_displacement[3] c_displacement[4] 
4012 2 -0.0047127 -0.00788084 -0.00543448 0.0106701 
2361 1 -0.00213348 0.0143245 -0.0132357 0.0196195 
79 1 -0.0130205 -0.0250501 0.0156817 0.0322948 
781 1 0.0306949 0.00965889 -0.0107595 0.0339299 
461 1 -0.00953681 -0.0241113 0.00186927 0.0259961 
3704 2 -0.0121591 -0.0156408 0.0203339 0.0283892 
629 1 -0.0146339 -0.00568508 0.0167284 0.0229414 
1571 1 0.00242427 0.00865758 -0.0170229 0.0192513 
58 1 0.0318236 -0.00311024 0.0611854 0.0690367 
1073 1 -0.0090215 -0.0145753 0.00708137 0.0185465 
372 1 0.00156596 0.0144919 -0.0126866 0.0193241 
3504 2 0.00492612 -0.0320027 0.0118313 0.0344735 
4130 2 -0.0157528 -0.0108207 -0.00858773 0.020952 
1262 1 0.00465765 0.0307582 -0.0276503 0.0416209 
907 1 -0.0248008 -0.0175907 -0.0439411 0.0534353 
3659 2 0.0257352 0.0498617 -0.030416 0.063825 
1298 1 0.0278222 0.0260818 -0.0180272 0.042182 
1716 1 -0.00199299 0.0447129 -0.0152197 0.0472743 
1182 1 -0.010833 0.00134702 0.0127002 0.0167471 
683 1 4.72117e-05 -0.0116024 0.0215793 0.0245007 
1958 1 0.0257281 -0.0371287 0.0232262 0.050793 
1554 1 -0.0020171 -0.0251045 -0.00907821 0.0267716 
1037 1 -0.02012 -0.0620889 0.00830233 0.0657934 
749 1 -0.0350517 -0.000115465 0.0137336 0.0376464 
3628 2 0.0282651 0.0206845 0.0183724 0.0395514 
946 1 -0.0156933 0.00988887 -0.0125189 0.0223784 
2232 1 0.0241687 0.0104529 -0.0228194 0.0348441 
7 1 0.000546201 -0.0200207 -0.00837583 0.021709 
501 1 0.0147264 0.0481807 -0.0337741 0.0606543 
179 1 -0.00520549 -0.00331662 -0.0336942 0.0342548 
714 1 0.0120755 -0.0118768 0.0458978 0.0489232 
4166 2 0.002339 -0.0147756 -0.0350436 0.038103 
276 1 -0.01473 0.017143 0.0114763 0.0253488 
767 1 -0.0228338 -0.00369976 0.0345583 0.0415854 
3890 2 -0.0423267 -0.00835204 -0.0206659 0.0478371 
6 1 -0.0111726 0.0211002 0.0134554 0.027406 
2086 1 -0.00405568 -0.00273155 0.0195054 0.0201089 
224 1 -0.00862301 -0.00190351 -0.00110059 0.00889893 
3660 2 0.0193018 0.0208741 0.00126056 0.0284583 
596 1 -0.0173442 -0.00350222 -0.0191188 0.0260503 
1214 1 -0.00833653 -0.0148325 0.000297224 0.0170173 
3686 2 0.0166885 0.014051 5.46659e-05 0.0218161 
427 1 -0.0106477 0.0227436 0.0175903 0.0306604 
350 1 0.000950152 0.0250612 0.0114983 0.0275895 
85 1 -0.0114194 -0.00483135 -0.0106064 0.0163169 
598 1 -0.01908 -0.00108929 0.0339413 0.0389518 
3554 2 -0.00126132 -0.0164662 -0.00515977 0.0173018 
29 1 -0.0039849 0.0263745 0.015282 0.0307413 
464 1 -0.0247924 0.0115125 -0.00252613 0.0274514 
3619 2 -0.00163901 0.00836511 0.0265102 0.0278469 
12 1 0.0422565 -0.0596756 0.034135 0.0806969 
364 1 -0.0286949 0.0231172 -0.00524511 0.0372198 
1849 1 -0.0373845 -0.00231099 0.0314426 0.0489038 
3663 2 -0.0197718 0.0112605 -0.0413587 0.0472045 
3517 2 0.0208461 0.010866 0.011429 0.0261391 
25 1 0.0250184 -0.0203143 0.00200665 0.0322896 
4163 2 -0.0178557 0.0129494 -0.00518423 0.0226581 
399 1 -0.00401708 0.000984251 -0.00299864 0.00510858 
4265 2 -0.00081559 0.0267956 -0.00136529 0.0268428 
527 1 -0.0327872 0.0229577 -0.0109565 0.0414982 
200 1 0.0114254 -0.010399 -0.000613539 0.0154614 
1951 1 0.021453 0.00906226 -0.00321555 0.0235095 
644 1 0.0137394 -0.0143651 0.0263097 0.0329746 
193 1 -0.0136659 0.032397 -0.0110556 0.0368585 
550 1 -0.00362578 -0.0134709 0.00236873 0.01415 
69 1 -0.014756 -0.0315647 0.0252225 0.0430145 
842 1 -0.00135058 0.0157483 -0.0435684 0.0463469 
578 1 -0.0359343 0.024316 -0.0131704 0.0453431 
172 1 0.00424422 -0.0419826 0.00553393 0.0425579 
381 1 -0.0209472 0.0454874 -0.0209531 0.0542856 
3524 2 0.0335467 -0.0354014 0.0158125 0.0512706 
688 1 0.00295271 0.0205066 0.00908866 0.022624 
3651 2 0.00548554 0.0238172 -0.00130676 0.0244756 
2367 1 -0.00925563 0.00430683 -0.0122547 0.0159497 
1244 1 -0.00965376 0.0279841 0.0345329 0.0454844 
796 1 -0.0404607 0.0173255 0.00252198 0.0440863 
691 1 0.0223114 -0.000604627 0.00668698 0.0232998 
421 1 -0.00223733 -0.000490921 0.0444615 0.0445205 
597 1 -0.0263475 0.0223553 -0.00784307 0.0354325 
3617 2 -0.00130748 0.007603 -0.0220163 0.0233288 
120 1 0.0073742 -0.00613769 -0.00482839 0.0107407 
769 1 -0.0190879 0.0269734 0.00713192 0.033805 
2142 1 0.00961872 0.0036522 0.00395809 0.0110238 
3611 2 0.0287683 0.0236416 0.0229931 0.0437633 
1915 1 -0.0187222 0.0143283 -0.00765254 0.0247867 
2140 1 -0.0113914 0.00582313 0.0225745 0.0259476 
3828 2 0.0328576 0.00232074 0.010585 0.0345984 
2192 1 0.0193669 -0.0122734 0.0292068 0.0371315 
175 1 0.017495 0.013344 -0.0184492 0.0287143 
2011 1 0.010246 0.0160408 -0.00341593 0.019338 
75 1 -0.0142806 0.0111682 0.0262964 0.03194 
547 1 -0.0222633 0.0162663 -0.00490426 0.0280053 
4316 2 0.0173666 0.0144375 0.0122274 0.0256818 
559 1 0.000429949 0.000111111 -0.0195246 0.0195296 
717 1 0.0399062 -0.0177625 0.00402839 0.0438661 
242 1 0.00475591 -0.00115955 0.018489 0.0191261 
3510 2 -0.0032032 0.00184313 -0.00246559 0.00444261 
130 1 -0.00986151 -0.0240641 0.0148383 0.0299417 
143 1 -0.000904674 0.000527224 -0.00777713 0.0078473 
202 1 -0.0287065 0.000740073 -0.0336132 0.0442093 
182 1 -0.0379857 0.0264206 0.00137395 0.0462909 
84 1 0.00423565 -0.0335436 -0.0181968 0.0383958 
3633 2 -0.00169216 -0.0239021 0.01868 0.0303828 
35 1 -0.0450976 -0.0274689 0.0125022 0.0542646 
3612 2 0.00472577 0.0303364 -0.0405348 0.0508497 
40 1 0.0309172 0.0246692 0.0181395 0.0435142 
4005 2 0.0205145 -0.0224838 0.00609789 0.0310411 
718 1 0.0130414 0.0342127 0.00285993 0.0367256 
134 1 0.00911029 -0.0286962 -0.0108908 0.0320169 
511 1 -0.00579609 -0.0317776 0.0429115 0.0537104 
757 1 0.0178018 0.0491984 -0.00494751 0.0525534 
3555 2 -0.0265161 -0.00723161 3.16744e-05 0.0274846 
3481 2 0.00341612 0.0205506 0.0138449 0.0250136 
135 1 0.0055453 -0.0199922 0.00631685 0.0216874 
369 1 0.0182315 -0.0146491 0.0288185 0.0371145 
2148 1 0.00148501 0.00571649 -0.016329 0.0173643 
3462 2 0.0200263 -0.025701 -0.0312837 0.0451693 
1914 1 -0.0235169 -0.0238168 -0.00819691 0.0344598 
3661 2 0.0191384 -0.0158789 0.00921021 0.0265187 
1871 1 0.0119231 0.00524192 -0.00472975 0.0138568 
320 1 -0.0171621 -0.0146064 -0.0107591 0.0249729 
582 1 -0.0214565 -0.022688 0.0133705 0.0339691 
766 1 -0.0138958 0.00452235 -0.00734248 0.0163541 
3552 2 -0.00283116 -0.012223 0.00543838 0.0136745 
2290 1 -0.0128068 0.0252761 0.0265656 0.038841 
1794 1 0.000245801 -0.0164712 0.004536 0.0170862 
753 1 -0.0320033 0.00980809 -0.0110189 0.0352396 
396 1 -0.0098263 -0.0189518 0.0116387 0.0243143 
496 1 -0.000114318 0.0271435 -0.0127541 0.0299908 
480 1 -0.0090275 -0.022416 0.0200507 0.0314007 
253 1 0.0152333 -0.00129773 -0.0123071 0.0196266 
4033 2 0.00530726 0.0115771 -0.00909621 0.0156504 
347 1 -0.0182175 -0.00361082 0.0249303 0.0310876 
586 1 -0.0021081 0.0044927 -0.0346973 0.0350504 
3671 2 0.0417714 0.00411854 -0.0367127 0.0557641 
37 1 -0.000881124 -0.00638108 0.0063033 0.00901256 
782 1 0.00201361 -0.00779401 -0.00287227 0.00854699 
481 1 0.00307951 -0.00821095 -0.0212859 0.0230216 
392 1 -0.0153807 0.00233064 -0.0356608 0.0389062 
333 1 -0.00265556 -0.0122722 -0.0156561 0.0200691 
342 1 0.0100759 0.0152947 -0.015859 0.0242272 
1179 1 -0.0077287 -0.000210544 -0.00878036 0.0116992 
517 1 -0.0118521 -0.00431123 -0.0149296 0.0195436 
1824 1 0.0168283 -0.0129165 0.0420192 0.0470706 
34 1 -0.0102444 0.0116798 0.0184668 0.0241327 
398 1 0.0154378 -0.00195886 -0.00289709 0.0158289 
170 1 -0.0217304 -0.0121458 -0.0134664 0.0283033 
235 1 0.000362065 -0.0440705 -0.00479782 0.0443324 
3852 2 -0.00309835 -0.0319112 -0.0032706 0.0322276 
816 1 0.0136929 -0.000949315 0.0113099 0.0177851 
3931 2 -0.0155164 -0.0303381 0.034097 0.0482054 
274 1 -0.0155095 -0.0140956 -0.0132407 0.02479 
30 1 0.0194936 0.000619919 -0.00882356 0.0214066 
2066 1 0.0330517 -0.0226133 0.0244816 0.0469375 
1082 1 0.0169078 0.0164717 0.00240475 0.023727 
1372 1 0.000255802 -0.00171449 0.0210637 0.0211349 
1265 1 0.0082547 0.00765093 -0.0236601 0.0262007 
601 1 0.0266601 0.0126545 0.0272136 0.0401432 
540 1 0.00932102 0.0252085 0.0201991 0.0336207 
589 1 -0.00556103 0.0280702 -0.0025909 0.0287328 
958 1 0.00350009 0.0117945 -0.0223433 0.0255065 
504 1 -0.0279625 0.0163836 0.0101422 0.0339586 
1349 1 0.00719728 0.0323299 0.0167239 0.0371041 
9 1 -0.00364758 -0.0262498 0.0118926 0.0290481 
149 1 0.0112341 0.0147909 0.0214076 0.0283419 
163 1 0.0131147 0.0137834 -0.0250836 0.0314828 
4247 2 0.00428341 -0.00917593 -0.0231331 0.0252524 
1584 1 0.0442101 -0.0121179 -0.0454907 0.0645816 
3570 2 -0.0192842 -0.0120224 -0.00792633 0.0240675 
237 1 0.00625915 0.00736267 -0.00664447 0.0117275 
490 1 -0.00274335 -0.00866986 0.0244628 0.0260983 
50 1 -0.0165392 -0.0399569 0.0192785 0.0473472 
152 1 -0.00264788 0.00743542 0.0136817 0.0157951 
3652 2 0.0165765 -0.00338302 -0.00537485 0.0177514 
3823 2 -0.01115 0.0172798 -0.0168277 0.0265723 
902 1 0.0110317 0.0262442 -0.00713803 0.0293497 
3574 2 -0.00792204 0.012063 -0.0175353 0.0227104 
770 1 0.000414924 -0.0204093 0.000926091 0.0204345 
154 1 0.00875688 0.00507204 -0.0212372 0.0235251 
116 1 0.0237574 -0.0241733 0.00270431 0.0340011 
710 1 -0.0256229 -0.0415644 0.0059309 0.0491865 
1956 1 -0.00907556 0.0236441 -0.0449846 0.0516239 
1810 1 -0.03011 -0.00688009 0.0283096 0.0418973 
2072 1 -0.00268879 -0.0145387 -0.0288546 0.0324221 
1649 1 0.0116035 -0.0100938 -0.00855198 0.0175972 
186 1 -0.00703894 -0.0267778 0.0302497 0.0410078 
1063 1 -0.00808908 0.00256574 -0.0320057 0.0331116 
432 1 -0.022925 0.0148457 -0.0276878 0.0388917 
2495 1 -0.0303996 -0.028486 0.0236201 0.0478904 
3896 2 -0.00475412 -0.00530757 -0.00621365 0.00945417 
1071 1 -0.0134841 -0.0103587 -0.0173987 0.0243277 
913 1 0.0238155 -0.0324291 0.0131856 0.0423401 
1068 1 0.0352963 0.0123625 0.00945551 0.0385754 
265 1 -0.0136256 0.00850195 0.00768828 0.0178059 
1287 1 -0.00385036 0.0333406 -0.00851352 0.0346252 
3799 2 -0.00273683 -0.00811154 -0.0170712 0.0190975 
554 1 0.00612347 -0.00071423 -0.0214119 0.0222817 
1414 1 -0.00926377 0.0186388 -0.0342904 0.040113 
213 1 0.00780801 -0.0216917 -0.00443767 0.0234774 
341 1 -0.017791 -0.00933775 -0.0125902 0.0237113 
3682 2 -0.0228355 0.00170137 -0.0271497 0.035517 
754 1 -0.0112691 0.051914 -0.00938359 0.0539454 
112 1 -0.0119521 0.00994207 0.00159869 0.0156286 
1041 1 -0.0179903 -0.0520311 -0.00155677 0.0550755 
119 1 -0.00510435 -0.0199499 0.0330147 0.0389104 
415 1 0.0161142 0.00710809 -0.00690873 0.0189189 
995 1 0.00911128 0.0199624 0.00594903 0.0227355 
4128 2 -0.0171857 -0.0168907 0.0382236 0.0451851 
8 1 0.0281738 0.0262387 -0.00218337 0.0385617 
94 1 -0.00790301 -0.0101559 0.0156225 0.0202401 
48 1 -0.0108111 -0.000891799 -0.00379136 0.0114913 
1270 1 0.0197567 -0.0214595 0.00779645 0.0301931 
3866 2 0.00475209 0.00429815 -0.00555416 0.00847969 
2206 1 0.0120222 -0.0100851 0.000978557 0.0157226 
3490 2 -0.012764 -0.0241395 -0.0141034 0.0307334 
3072 1 0.00475837 -0.0122368 0.0363597 0.0386576 
3002 1 0.0324506 -0.0249832 0.0143204 0.0433852 
92 1 -0.00938808 0.0447419 0.0162954 0.0485336 
335 1 -0.014138 0.0217947 -0.0176841 0.0314264 
4034 2 -0.0367026 -0.0269034 0.00714513 0.0460644 
1186 1 0.00978051 0.00437974 0.00302076 0.011134 
1114 1 0.035984 0.00933643 0.00530994 0.0375528 
1821 1 -0.0101005 -0.0121703 -0.0123434 0.0200623 
1922 1 -0.0105915 -0.0296251 -0.0115444 0.0335127 
451 1 -0.0149481 -0.0142857 -0.00975191 0.022861 
3960 2 0.00195347 -0.00714022 0.00105296 0.00747713 
100 1 -0.0121929 0.0153658 -0.00553952 0.0203829 
1180 1 -0.0105532 -0.0235324 -0.0142058 0.029444 
165 1 0.0283191 0.00550788 -0.00881755 0.0301672 
388 1 -0.0240882 -0.0214034 -0.0152012 0.035629 
3742 2 0.0332366 -0.0118531 0.020536 0.0408276 
323 1 -0.0172338 0.0245957 -0.0404527 0.0503823 
288 1 -0.0130768 0.00158511 0.0124741 0.0181416 
3942 2 -0.0142571 0.0192246 0.0352615 0.0426171 
66 1 0.00886763 0.0173776 0.0124308 0.0231331 
340 1 -0.00112174 -0.0380271 0.0117931 0.0398296 
138 1 -0.00912711 0.0240245 0.00251875 0.0258229 
879 1 0.000614657 0.00144405 -0.0107789 0.0108925 
3808 2 0.0102509 -0.020459 0.00678806 0.023869 
834 1 -0.0188838 0.0041783 0.00798145 0.0209227 
18 1 -0.00988641 -0.0177902 -0.026587 0.0334828 
3679 2 -0.00341171 -0.0085728 0.00256711 0.0095772 
52 1 -0.0052077 0.00574915 -0.00428746 0.00886314 
407 1 -0.0309833 -0.00151166 -0.0161966 0.034994 
360 1 0.0260271 0.00732103 -0.0508922 0.0576283 
2885 1 -0.0137757 -0.0195096 -0.0157956 0.0286338 
3526 2 0.00145918 -0.0393178 -0.00976205 0.0405379 
310 1 -0.0302369 -0.000851658 0.00798401 0.0312848 
326 1 0.00815714 -0.0161829 0.0137555 0.0227517 
227 1 -0.00349151 -0.00126944 0.00423253 0.00563173 
2068 1 -0.0150107 -0.0346261 -0.0404078 0.0552908 
456 1 -9.44091e-06 -0.0018213 0.00789801 0.00810529 
279 1 -0.0171785 0.0110647 0.0164828 0.0262528 
305 1 -0.0417123 0.00280608 -0.0039407 0.0419919 
49 1 0.0121052 0.00315699 0.00941127 0.0156549 
3512 2 -0.00906297 -0.0339896 0.0221201 0.0415539 
11 1 -0.00393606 -0.0205975 -0.00883058 0.0227536 
189 1 0.00212659 0.0164193 0.025434 0.030348 
2271 1 -0.00786073 -0.012061 -0.0156558 0.0212688 
319 1 -0.0258903 -0.00973069 -0.00928062 0.029174 
3566 2 -0.0129965 0.0130092 -0.0056276 0.0192307 
71 1 -0.0257646 0.00611386 -0.00402985 0.0267849 
1560 1 -0.0130187 -0.00782373 0.0240582 0.0284516 
190 1 0.0074196 -0.0128147 0.00161466 0.0148955 
123 1 0.0167682 0.00858218 0.0167767 0.0252247 
27 1 -0.0164024 0.00153365 -0.013327 0.0211896 
162 1 -0.000128986 0.00224315 -0.0274344 0.0275263 
255 1 -0.0256419 0.00927205 -0.0163884 0.0318129 
304 1 -0.0281691 0.0045496 -0.0127311 0.0312455 
321 1 -0.0010631 -0.0278509 0.0406166 0.0492597 
682 1 -0.022033 0.000244502 -0.00191087 0.0221171 
3469 2 0.0372443 0.0320083 -0.0260104 0.0555717 
3539 2 0.0218286 0.0303089 0.00863231 0.0383358 
128 1 0.0273356 -0.013688 0.000457982 0.0305746 
3562 2 0.0360824 0.0121403 0.00791645 0.0388844 
560 1 -0.0228098 -0.0165757 0.0136356 0.0313204 
212 1 0.0155067 0.0098523 0.0113017 0.0215698 
355 1 0.00297654 0.021771 0.0377273 0.0436599 
156 1 0.0363243 0.00500954 0.0149829 0.0396111 
3620 2 -0.0152846 -0.00691717 0.0112535 0.0202017 
1823 1 0.0419308 -0.0405517 -0.0231906 0.0627729 
1805 1 0.00650131 0.025866 0.0274985 0.0383078 
2599 1 0.0132822 0.0221236 -0.0160858 0.0304076 
327 1 -0.0179171 0.0111215 -0.00857398 0.0227646 
137 1 0.0224908 -0.00636618 0.0347364 0.0418687 
2334 1 -0.00387067 0.0149179 0.00293174 0.0156883 
3698 2 0.00629514 -0.0268325 0.0104851 0.0294881 
555 1 0.0141164 -0.0104092 -0.0073838 0.0190301 
4178 2 0.0198185 0.00178445 0.00695929 0.0210805 
290 1 -0.00263957 0.0223648 -0.0132938 0.026151 
284 1 -0.0212796 -0.0121832 -0.0240626 0.034355 
3543 2 0.019637 0.00223867 0.00336084 0.0200479 
366 1 0.00711222 -0.0146525 -0.00762048 0.017982 
55 1 -0.00642082 0.000169003 0.00265983 0.00695199 
273 1 -0.008085 -0.00464089 0.00240806 0.00962828 
3468 2 0.0154582 0.00269376 -0.000139023 0.0156918 
316 1 0.0167212 -0.0228708 0.0372306 0.0467845 
81 1 -0.0297595 0.0183764 0.021103 0.0408492 
322 1 0.0133021 0.00615885 -0.0162382 0.0218759 
239 1 -0.0134911 0.00737365 -0.0124914 0.0198095 
734 1 -0.0260129 -0.0285778 -0.0111471 0.0402197 
384 1 0.0267416 -0.00869546 -0.00278079 0.028257 
3476 2 -0.0121898 0.0229448 0.00597714 0.0266605 
311 1 0.0288061 -0.0195625 -0.0143381 0.0376572 
3471 2 -0.0199844 0.0067859 -0.0102846 0.0234776 
1938 1 -0.00890378 -0.0118926 -0.00944914 0.0176068 
139 1 0.0348734 -0.0129963 -0.0117637 0.0390313 
727 1 -0.00816132 -0.00987447 0.00555949 0.013965 
1885 1 0.00342715 0.022498 -0.0296941 0.0374118 
2184 1 0.00612257 0.0640285 -0.0407938 0.0761661 
2494 1 -0.0300827 -0.0327527 -0.018613 0.0482095 
2091 1 -0.0162077 -0.0108638 -0.00982346 0.0218452 
281 1 0.0240864 0.0102728 0.0223398 0.0344203 
863 1 -0.000400667 0.0359579 0.00921433 0.0371219 
176 1 -0.0328291 0.0161208 -0.0230098 0.0432097 
3710 2 0.0002807 0.0216791 -0.00448646 0.0221402 
3572 2 0.00298408 -0.0168799 0.00409536 0.017624 
4197 2 -0.0251802 0.00331897 0.00519515 0.0259239 
343 1 0.00639498 -0.0134455 -0.0328074 0.0360278 
282 1 -0.000202727 -0.000633108 0.0044828 0.00453182 
1038 1 -0.00234852 -0.00951836 -0.00813053 0.0127366 
408 1 0.0486041 0.0435394 -0.0124227 0.0664256 
412 1 0.0351249 -0.0179396 0.000800604 0.0394491 
820 1 0.0199168 -0.00162823 -0.00233761 0.0201195 
585 1 -0.00873742 -0.0129984 -0.0144297 0.0212959 
3609 2 0.0261896 -0.000721519 -0.00151033 0.026243 
719 1 -0.0234645 0.0180072 -0.00415817 0.0298685 
608 1 0.00524315 -0.0381083 -0.0088474 0.0394716 
106 1 0.00132085 0.0250929 0.0028521 0.025289 
1047 1 -0.0384848 -0.00557494 0.00456475 0.0391535 
3573 2 -0.000620013 0.00556479 -0.0140685 0.0151418 
751 1 -0.0218012 -0.00195695 0.00494181 0.0224398 
259 1 0.0211428 -0.0284613 0.00784615 0.0363129 
245 1 -0.0248966 0.00362104 -0.0295611 0.0388177 
613 1 -0.0131462 0.00357508 0.0482524 0.0501388 
4296 2 -0.0089163 0.00684766 0.0105364 0.015408 
272 1 -0.0220499 -0.0286366 0.00103711 0.036157 
4239 2 0.00123677 -0.0297782 -0.0151417 0.0334297 
88 1 0.0152091 0.0322692 0.0133133 0.0380771 
4 1 0.0476921 0.001897 -0.0166322 0.0505447 
361 1 0.0148141 0.0321467 -0.0423436 0.0551892 
358 1 -0.000716016 -0.00898196 0.0224205 0.0241633 
194 1 0.00179295 0.00919697 -0.0226248 0.0244884 
2373 1 -0.00509899 -0.0231266 -0.0117017 0.0264153 
1982 1 -0.00706695 -0.011528 -0.0359249 0.0383853 
3953 2 -0.0141657 0.00850362 0.00342586 0.0168735 
414 1 0.00157514 0.00249994 -0.00911333 0.00958037 
3186 1 0.0172682 -0.0212873 0.0190701 0.0333917 
177 1 0.0250165 -0.00605899 0.0312387 0.040477 
1962 1 -0.011279 0.0132746 0.0112232 0.0207218 
706 1 0.0182872 -0.000999275 0.00289274 0.0185415 
1544 1 -0.00881527 -0.00101279 -0.00966921 0.0131236 
4160 2 -0.00193019 0.003667 -0.00426052 0.00594345 
19 1 -0.00336631 -0.0304217 -0.0198142 0.0364611 
3624 2 0.0103898 -0.0173049 -0.0141096 0.024627 
115 1 0.0421802 -0.0219864 -0.00664217 0.048028 
1102 1 -0.0314252 0.0100766 -0.0110228 0.0347934 
1492 1 0.0184251 0.00503135 0.0142441 0.0238263 
649 1 0.024273 0.0401777 -0.0200702 0.0510513 
113 1 -0.00664239 0.0199818 0.00112641 0.021087 
1150 1 0.020691 -0.00708928 0.010341 0.0241932 
620 1 -0.0464074 0.0230736 0.0161298 0.0542789 
739 1 -0.00700176 -0.00594923 0.00688128 0.0114791 
2412 1 -0.00091492 0.0365883 0.00688605 0.0372419 
3746 2 0.0248004 0.00397105 -0.0415254 0.0485303 
1225 1 0.0166466 0.0269552 0.0259144 0.0409298 
241 1 0.0122826 0.0291101 -0.0060805 0.0321751 
83 1 0.0123102 0.0270711 -0.00834869 0.0308883 
1006 1 0.00123221 0.00190192 -0.00338935 0.00407717 
4046 2 -0.0488988 0.00453907 -0.0122225 0.0506072 
96 1 0.0211784 -0.0266896 -0.00631903 0.0346525 
411 1 0.0199667 0.0153284 0.00861413 0.0266052 
2454 1 0.0033039 -0.00721437 -0.0125704 0.0148654 
404 1 -0.000874105 0.010115 0.0240554 0.0261101 
226 1 0.02904 -0.000917849 0.0297213 0.0415635 
534 1 0.0130353 -0.00483481 0.0261768 0.0296398 
3538 2 0.0118262 0.0144494 0.0129073 0.022699 
761 1 0.022994 0.0163629 0.000195475 0.0282224 
246 1 0.0325254 -0.0283061 0.0194101 0.0472852 
2229 1 0.0217293 -0.00757407 0.0145288 0.0272143 
146 1 -0.00153784 0.0285356 -0.00561711 0.0291238 
3608 2 0.0136042 -0.022719 -0.0159463 0.0309114 
503 1 -0.0143526 -0.000810949 0.0164058 0.0218129 
505 1 0.0180705 -0.00301377 -0.0181219 0.0257688 
1430 1 -0.0201443 -0.0143337 0.00704897 0.0257087 
97 1 -0.0007035 0.0168791 -0.00743929 0.0184592 
1723 1 0.0114218 -0.0189821 -0.0299841 0.0372803 
3561 2 -0.00670943 0.0209868 0.00299048 0.0222352 
20 1 -0.0126456 -0.0277998 -0.0191876 0.036068 
263 1 -0.0278178 0.0204853 0.0208137 0.0403322 
817 1 0.025149 -0.0160539 -0.00634002 0.0305024 
1034 1 0.00530571 0.00783412 0.006797 0.01165 
353 1 0.015164 -0.0124884 0.00354074 0.0199611 
1260 1 0.0118793 0.0140133 -0.0118057 0.0218372 
998 1 0.00769384 0.00892394 -0.0145148 0.0186952 
1932 1 0.0243658 -0.0254534 0.00443684 0.0355142 
36 1 0.0144938 -0.0218549 0.0229251 0.034832 
38 1 -0.0249755 -0.018681 -0.0189206 0.0364794 
3130 1 0.00214034 0.0151364 -0.0124426 0.0197106 
1973 1 0.0276235 -0.0304382 0.0441351 0.0603113 
307 1 -0.0140326 -0.0109893 -0.0293556 0.0343428 
2714 1 0.0425637 0.0156835 0.00745041 0.045969 
28 1 -0.00831294 -0.0179154 -0.0218595 0.0294602 
1937 1 -0.00303089 -0.00333487 -0.0136077 0.0143345 
562 1 -0.0221136 -0.0249412 -0.00269347 0.0334415 
3011 1 -0.0305985 -0.0161842 0.0112091 0.0363847 
410 1 0.036357 -0.00398844 0.00949289 0.0377869 
693 1 0.0213045 0.0381977 -0.00856319 0.0445676 
367 1 -0.016327 0.000877508 -0.00631203 0.0175267 
318 1 0.0345736 0.0111581 0.00260309 0.0364227 
735 1 0.0190086 -0.0190102 0.0213438 0.034326 
600 1 -0.0178546 0.0168362 0.0279201 0.0371722 
3590 2 -0.0239728 0.00844794 -0.0429087 0.0498721 
3636 2 0.0188068 -0.0474576 0.00886562 0.0518123 
26 1 -0.00932864 0.0263654 0.0125793 0.0306659 
1199 1 0.0192929 -0.00988789 -0.00473405 0.02219 
614 1 0.00757582 -0.0177176 -0.00677606 0.020426 
459 1 0.0278943 0.004523 -0.0109203 0.0302953 
3645 2 0.0189597 0.0285244 0.00846927 0.0352823 
574 1 0.000985713 0.023114 -0.0271279 0.0356532 
780 1 0.0273603 -0.00610901 -0.00570244 0.0286081 
161 1 0.0110842 0.0348603 -0.0197631 0.0415773 
309 1 0.0316992 0.0119832 0.00434984 0.0341666 
365 1 -0.0126312 -0.00514133 -0.00184686 0.013762 
191 1 -0.01217 0.0326634 -0.00397229 0.0350826 
1766 1 0.0229919 0.0441307 -0.0151874 0.052027 
2775 1 -0.0173077 -0.0275546 -0.0111101 0.0343838 
1030 1 -0.0106868 -0.00559806 0.0243688 0.0271916 
1505 1 0.00965256 0.0352768 0.0284435 0.046332 
3872 2 -0.00382517 0.0162658 -0.00441799 0.0172837 
580 1 -0.0115448 -0.0227106 -0.0177314 0.0310396 
2054 1 -0.0473138 -0.0162434 -0.0195656 0.0537146 
2064 1 0.0113385 0.00158206 -0.0173114 0.0207545 
529 1 0.00943325 0.00565828 -0.0207454 0.0234814 
402 1 0.00729451 0.0199841 -0.0193157 0.0287345 
124 1 0.0085964 -0.0165382 -0.004208 0.019108 
744 1 0.00288627 0.0268532 -0.00511866 0.0274886 
185 1 0.0318215 -0.0179981 0.0430232 0.0564583 
315 1 0.00251543 -0.0188413 -0.0227856 0.0296733 
655 1 -0.0201548 0.0145923 0.00884074 0.0264066 
765 1 -0.0112371 0.0428676 0.0144236 0.0466041 
140 1 0.0084627 0.0178523 0.0192191 0.0275626 
59 1 -0.0111388 -0.0129034 0.00785068 0.0187671 
54 1 0.0111596 0.0135072 0.049384 0.0524 
3506 2 0.0225725 0.00626705 -0.00395626 0.0237581 
666 1 -0.0188073 -0.0177495 0.0163079 0.030573 
43 1 0.00327036 0.0569063 0.0112814 0.0581058 
334 1 0.0115482 0.0203038 0.00974893 0.025311 
267 1 0.0171906 0.0160987 0.0131252 0.0269621 
99 1 0.0324658 -0.0268662 0.0368438 0.0559758 
1189 1 -0.0254421 -0.0236724 -0.0355285 0.0496987 
201 1 0.0136725 -0.00787298 -0.0173945 0.0234838 
380 1 0.0207981 0.0235497 -0.0311497 0.0442432 
1777 1 0.0164942 -0.00831402 -0.01936 0.0267581 
2597 1 0.0480594 0.00286818 -0.0289723 0.0561901 
2484 1 0.0485711 0.0130071 -0.0236235 0.0555554 
308 1 -0.0253613 -0.0187078 -0.0145818 0.0347247 
3918 2 -0.00824524 0.01805 -0.0161157 0.0255637 
89 1 -0.0143782 -0.0288607 -0.0176159 0.0367423 
300 1 -0.00155027 0.0172281 -0.00568904 0.0182092 
3582 2 0.00683946 0.0515449 -0.0061031 0.0523536 
712 1 -0.0210804 0.00965568 0.0225264 0.0323273 
3836 2 0.000376739 0.00520808 -0.0139474 0.0148928 
268 1 0.0176291 0.0124221 -0.0112848 0.0243401 
788 1 0.0150409 -0.0113724 -0.0257401 0.0319079 
4091 2 -0.0117159 0.0211028 0.0360113 0.0433521 
371 1 0.0224952 -0.00846378 -0.0153832 0.0285361 
3505 2 0.000843688 -0.0113027 0.030104 0.032167 
266 1 -0.00948024 -0.00230098 -0.00240523 0.0100476 
3571 2 -0.0397173 0.0455339 -0.00997645 0.0612399 
637 1 -0.0144839 0.00326661 0.00510424 0.0157006 
157 1 0.0390385 0.0126136 0.00103714 0.0410388 
257 1 0.00214327 0.0214241 0.034357 0.0405461 
571 1 -0.0245669 -0.00760622 -0.0251602 0.0359781 
665 1 -0.0132353 0.0193421 0.027064 0.0358015 
448 1 -0.0303906 -0.000243373 0.00347793 0.0305899 
827 1 0.0427839 0.0196185 -0.000338987 0.0470687 
3475 2 -0.0131971 -0.00985278 0.00880673 0.0186762 
73 1 -0.00450193 0.0341294 -0.011494 0.0362932 
373 1 0.00250813 -0.0243953 0.0117077 0.0271753 
247 1 -0.00983024 0.00196634 0.00386791 0.0107453 
107 1 0.0107421 0.00280563 0.0153317 0.0189295 
675 1 0.0113319 0.0141705 -0.035813 0.040147 
434 1 0.000846368 0.0191153 0.012002 0.0225867 
159 1 0.00913103 -0.00315167 -0.0046992 0.010742 
32 1 -0.00320395 0.0148145 -0.00823054 0.0172475 
3579 2 -0.0098915 -0.0329247 -7.28179e-05 0.0343786 
394 1 -0.0163598 -0.00683491 0.00649046 0.0188808 
260 1 -0.0253209 -0.00569184 0.00723261 0.0269417 
3972 2 -0.0112742 0.00196795 0.0397607 0.041375 
1801 1 -0.0271569 -0.00547379 0.0205979 0.0345215 
2122 1 -0.00275884 0.0199616 0.011704 0.0233037 
1966 1 0.0165432 0.0162707 -0.0172655 0.0289226 
291 1 0.00074175 -0.00806801 0.0108849 0.0135693 
2047 1 0.016327 -0.00500328 0.00675509 0.0183639 
1899 1 -0.020014 0.0647593 0.00854404 0.0683179 
622 1 -0.0300807 -0.00156584 0.00610112 0.0307331 
1993 1 -0.00111245 0.0146201 0.00189553 0.0147844 
62 1 0.0248619 0.0169233 -0.00148555 0.0301118 
2187 1 0.0227764 0.00327254 -0.029737 0.0376001 
4318 2 0.0111606 -0.014627 -0.00349749 0.0187281 
44 1 -0.024414 -0.0278517 0.00788081 0.0378665 
824 1 -0.0246447 -0.00343369 -0.00307914 0.0250725 
1282 1 -0.0226311 -0.0120548 0.0288623 0.0386072 
3626 2 -0.000780791 0.00770226 -0.000776948 0.00778062 
819 1 0.0204429 -0.00879072 -0.00671524 0.023244 
773 1 -0.0124686 -0.0204389 0.00431968 0.0243285 
270 1 0.0230431 -0.0249763 0.029373 0.0449174 
14 1 -0.0187599 0.0251493 -0.0177686 0.0360575 
3540 2 0.0137378 -0.0264619 0.000501752 0.0298196 
997 1 0.020075 0.0191426 0.0207914 0.0346659 
4275 2 -0.00374035 -0.0285385 -0.0163028 0.033079 
164 1 0.00767948 0.0184262 0.0490492 0.0529559 
234 1 -0.0264878 -0.0155375 0.00845673 0.0318517 
1125 1 -0.00162432 0.0314337 -0.0171575 0.0358482 
3985 2 -0.0274883 -0.00622109 0.021201 0.0352674 
328 1 0.00182481 -0.00667354 -0.0150538 0.0165675 
3474 2 0.00225292 0.0121139 -0.00184585 0.0124591 
543 1 -0.00606587 -0.0196923 0.0049885 0.0212006 
293 1 0.00913151 -0.00737372 -0.00160257 0.0118459 
3458 2 0.0169057 -0.0253313 0.00928398 0.0318381 
390 1 -0.0116711 -0.0242476 0.0240492 0.0360905 
3706 2 0.051086 -0.00321112 -0.0294318 0.059045 
2169 1 0.0134958 -0.00426352 0.0137477 0.019731 
1786 1 -0.0237658 0.0175232 -0.0219455 0.0367897 
1478 1 0.0131992 -0.00895261 0.0237812 0.0286342 
87 1 -0.0187763 -0.0164411 0.00264454 0.0250969 
4090 2 -0.00429826 -0.0259213 0.0329113 0.0421134 
142 1 -0.00923342 0.00739513 0.0242178 0.0269527 
1650 1 -0.0220686 -0.00607973 -0.025465 0.0342411 
153 1 -0.000636479 0.0105363 0.00952066 0.0142148 
374 1 0.00301596 -0.0189985 0.0171267 0.0257558 
602 1 -0.0100652 -0.00109163 0.0038677 0.0108378 
1277 1 -0.0199544 -0.00549277 0.0106374 0.0232703 
76 1 -0.0310449 -0.00721635 0.00173994 0.03192 
1370 1 0.00690207 -0.0186162 0.0308206 0.0366621 
221 1 0.0161381 -0.0169216 -0.0282841 0.0366983 
604 1 -0.00011043 0.0271827 0.0191001 0.0332224 
1161 1 -0.0162025 0.00228428 0.0358735 0.039429 
1718 1 -0.0304169 0.000259776 -0.0114085 0.0324871 
178 1 0.0262415 -0.0286009 -0.00173707 0.0388542 
295 1 -0.0159983 -0.0175364 0.000645567 0.0237463 
1472 1 -0.0238648 -0.0285353 0.0147022 0.0399993 
4159 2 -0.00656619 -0.0202487 -0.0116514 0.0242669 
3467 2 0.0293471 -0.000326275 0.00812345 0.0304524 
3531 2 0.0276257 0.00284054 0.0434088 0.0515323 
2720 1 -0.0517453 0.00994707 0.000259361 0.0526934 
1851 1 0.0133454 0.0230263 0.00119344 0.0266409 
732 1 -0.0251576 -0.0221676 9.73279e-05 0.0335308 
4009 2 0.0216332 0.0189234 -0.0132256 0.0316387 
3878 2 0.00158223 0.00304905 -0.00734807 0.00811137 
3185 1 -0.00547139 -0.00279678 -0.00460788 0.00768054 
110 1 -0.0360929 0.000798125 0.00481127 0.0364209 
2963 1 -0.0021513 0.0159988 0.00287122 0.0163961 
2608 1 -0.00863843 -0.000969436 0.00848845 0.0121497 
3301 1 0.00616898 -0.0112332 -2.87151e-05 0.0128157 
3759 2 -0.00596625 0.0225452 -0.00362262 0.0236009 
4171 2 0.0131317 -0.000157366 0.00598572 0.0144324 
2118 1 -0.013589 -0.00683745 -0.0372412 0.0402284 
1742 1 0.0192363 -0.0339731 0.000148464 0.0390414 
642 1 0.0163866 -0.0280644 0.0249645 0.0409799 
3366 1 -0.028997 0.00850274 0.0158178 0.0341076 
144 1 0.0379765 0.0072285 0.00251463 0.0387401 
681 1 0.0189012 -0.0152162 -0.012092 0.027111 
1666 1 0.032193 -0.00991579 -0.0183352 0.0383522 
183 1 -0.0278161 -0.00934364 -0.00345358 0.029546 
694 1 -0.0288001 0.00925141 0.0293134 0.0421226 
444 1 -0.0060628 0.0342226 -0.0197118 0.0399562 
869 1 -0.000208111 -0.0357935 0.02012 0.0410613 
920 1 -0.00454405 -0.0205412 -0.0100565 0.0233179 
53 1 0.0133797 0.00177303 0.00798817 0.0156835 
1450 1 -0.0498759 -0.0276646 0.0128538 0.058465 
1579 1 0.0380309 -0.0191205 0.0218238 0.0478353 
51 1 0.0171603 0.00198701 0.0167883 0.0240888 
4187 2 -0.0214285 -0.00735846 -0.060434 0.0645414 
1694 1 0.0130894 -0.0261226 0.00306688 0.0293791 
1590 1 7.69881e-05 0.0238304 0.00223857 0.0239354 
2005 1 -0.0102445 0.00641248 0.0631753 0.064321 
736 1 -0.00508922 -0.0133238 -0.0299866 0.0332057 
363 1 0.00370541 -0.00222868 0.0140409 0.0146916 
230 1 -7.21115e-05 -0.00296556 0.0524847 0.0525684 
2538 1 -0.00963301 0.00951045 -0.0234259 0.0270558 
357 1 -0.0402383 -0.000696008 0.00771622 0.0409773 
3849 2 0.0308476 0.00691573 0.0282463 0.042394 
4102 2 0.0314826 -0.0325647 0.0121981 0.0469086 
1032 1 0.0215619 -0.00721636 -0.00111091 0.0227646 
78 1 -0.000101258 -0.00280406 0.00303788 0.00413542 
564 1 0.0140808 -0.0049713 0.0382379 0.0410503 
797 1 0.0413696 -0.00720693 -0.0134361 0.0440898 
1476 1 0.0375319 -0.0110068 -0.0111093 0.0406596 
872 1 -0.0202425 -0.0190495 0.00110068 0.0278182 
475 1 -0.0149727 -0.00744786 -0.00255428 0.0169167 
4119 2 0.00767957 -0.0092408 -0.00321213 0.0124373 
576 1 -0.0356037 0.0144984 0.0258503 0.0463257 
507 1 0.017534 0.00737957 0.0141067 0.0236833 
248 1 0.0392805 -0.0156957 -0.00352012 0.0424465 