ITEM: TIMESTEP
46
ITEM: NUMBER OF ATOMS
4320
ITEM: BOX BOUNDS pp pp pp
0.0000000000000000e+00 1.9309999999999999e+01
0.0000000000000000e+00 1.9309999999999999e+01
0.0000000000000000e+00 9.6549999999999994e+00
ITEM: ATOMS id type c_displacement[1] c_displacement[2] c_displacement[3] c_displacement[4] 
4012 2 0.0308335 -0.0749844 0.00330459 0.0811436 
2361 1 -0.0304942 -0.071903 -0.0608409 0.0990028 
79 1 -0.0592568 -0.0785082 0.0254743 0.101606 
781 1 0.058492 -0.0314907 0.0727425 0.0985112 
461 1 0.000500048 0.0133388 -0.0372079 0.0395298 
3704 2 -1.56293e-05 -0.0735289 0.0180115 0.0757028 
629 1 -0.0673884 0.0740335 0.036944 0.10671 
1571 1 0.00834595 -0.00538566 -0.0295156 0.0311421 
58 1 0.1076 0.0582007 0.127086 0.176397 
2372 1 -0.0535492 -0.040368 -0.00973544 0.0677633 
372 1 0.000769103 -0.0354298 -0.0174674 0.0395091 
3504 2 -0.0132825 -0.0801149 0.0380103 0.0896639 
4130 2 0.0162437 -0.0224721 -0.0749789 0.0799418 
1262 1 0.0526716 0.093771 -0.070063 0.128359 
907 1 -0.0945303 -0.0626792 -0.139104 0.179484 
3659 2 0.00887525 0.173484 -0.0967157 0.19882 
1298 1 0.067863 0.059325 -0.0975544 0.132822 
1716 1 0.0256988 0.0858557 -0.0623612 0.109181 
1182 1 0.032351 0.0166793 -0.00715041 0.0370933 
683 1 -0.0163243 -0.0429158 0.0584955 0.0743638 
1958 1 0.0115589 -0.0655347 0.0579309 0.0882292 
1554 1 0.0247047 -0.0742053 -0.0703274 0.105179 
1037 1 -0.0164803 -0.16171 0.0203548 0.163817 
749 1 -0.103507 -0.0721223 0.0497311 0.135604 
3628 2 0.0530644 0.0553546 0.0110902 0.0774787 
946 1 -0.0403633 -0.00598295 -0.0619241 0.0741592 
2232 1 0.00329763 -0.0481507 -0.0925775 0.104403 
7 1 0.0408502 0.0153097 0.0213401 0.0485647 
501 1 0.00227318 0.0721768 -0.0807223 0.108309 
179 1 -0.0284296 -0.0303101 -0.087228 0.0966212 
714 1 -0.0852244 -0.0429293 0.117905 0.151683 
4166 2 0.0090433 -0.0642902 0.00291479 0.0649885 
276 1 -0.0293218 0.0191844 0.10703 0.11262 
767 1 -0.0611146 -0.0264285 0.0411148 0.0782553 
3890 2 -0.175113 -0.0473968 -0.115982 0.21532 
6 1 0.0106826 0.126656 -0.0280372 0.130161 
2086 1 -0.0136866 0.00452542 0.0460368 0.0482409 
224 1 0.0455046 -0.0365959 0.00393577 0.058527 
3660 2 0.0315861 0.0231124 0.0481642 0.0620617 
596 1 -0.0828402 -0.00981068 -0.0116059 0.0842226 
1214 1 0.0100356 -0.064109 -0.0718731 0.0968319 
3686 2 0.0349646 0.0216788 0.0229915 0.0471286 
427 1 -0.0761696 0.0764721 0.0930796 0.142526 
350 1 0.0127712 0.0593782 -0.0174189 0.0631846 
85 1 -0.0293821 0.0118647 0.0254312 0.0406303 
598 1 -0.0256464 -0.0442265 0.113922 0.124868 
3554 2 0.0245542 -0.0321041 -0.035096 0.0535286 
29 1 -0.0667825 0.0616148 0.0278037 0.0950227 
464 1 -0.014821 0.0242804 -0.0715253 0.0769745 
3619 2 -0.0462269 0.0437699 0.0888159 0.109275 
12 1 0.00206997 -0.155416 -0.00750467 0.155611 
364 1 -0.119633 0.00968067 -0.086389 0.147881 
1849 1 -0.0736309 -0.0977787 -0.0346963 0.127224 
3663 2 -0.155925 0.0539272 -0.0461823 0.171329 
3517 2 0.0290926 0.0080849 0.103611 0.107921 
25 1 0.165591 -0.0148947 -0.0473832 0.17288 
4163 2 0.0197531 0.0030102 -0.025828 0.0326548 
399 1 0.0248914 0.0191446 -0.0232613 0.0390793 
4265 2 -0.0543818 0.0657861 0.0381689 0.0934989 
527 1 0.0290481 4.20987e-05 -0.0398977 0.049352 
200 1 0.0887726 0.0376192 0.0743484 0.121752 
1951 1 0.12463 0.104517 0.0491359 0.169914 
644 1 0.0326796 -0.0467042 0.0581746 0.0814464 
193 1 0.0333724 0.0917124 0.0106334 0.0981731 
550 1 0.00900879 -0.0339971 -0.0320807 0.0476038 
69 1 0.0202764 -0.00952878 -0.0049241 0.0229386 
842 1 -0.0823568 0.0385686 -0.0615291 0.1098 
578 1 -0.023104 0.00851335 0.0147059 0.0286799 
172 1 -0.0157055 -0.065553 0.0227469 0.0711427 
381 1 -0.0112482 0.0276151 -0.0701358 0.0762112 
3524 2 0.061445 -0.10738 0.138615 0.185795 
688 1 -0.0892713 0.0988521 -0.0243164 0.135397 
3651 2 -0.040733 0.0522095 0.0330245 0.0739975 
2367 1 0.046574 0.017169 -0.0132565 0.0513774 
1244 1 -0.0855015 -0.0105325 0.0139984 0.0872776 
796 1 -0.0875235 0.100487 -0.035599 0.137932 
691 1 0.0561352 -0.0139254 0.0186778 0.0607777 
421 1 0.0453024 0.0373737 0.0856605 0.10386 
597 1 -0.0377963 0.0602942 -0.0100654 0.0718698 
3617 2 0.0330546 0.00578734 -0.048897 0.0593044 
120 1 0.078913 0.0988436 0.0549217 0.13789 
769 1 -0.0564928 -0.00710186 0.0552714 0.0793524 
2142 1 -0.0120788 0.0329556 -0.0300935 0.0462341 
3611 2 0.14627 0.0453676 0.140051 0.207527 
1915 1 -0.0199801 0.0502487 0.033572 0.0636492 
2140 1 -0.00618442 -0.00785141 0.104642 0.105118 
3828 2 0.11182 0.0321285 0.0487666 0.126151 
3204 1 0.00455198 0.0737407 0.0384343 0.0832803 
175 1 0.0976512 0.0481504 -0.0366488 0.11488 
2011 1 0.106618 0.0310877 -0.0388617 0.11766 
75 1 0.00403626 0.1015 -0.0230073 0.104153 
547 1 -0.020177 -0.029104 -0.0829703 0.0902122 
4316 2 -0.0642548 0.0401621 -0.038509 0.0849977 
559 1 0.0386532 0.0483323 -0.0150515 0.0636917 
717 1 -0.0111452 0.0768269 -0.044942 0.0897015 
242 1 0.00699819 -0.035129 0.0676181 0.0765195 
3510 2 -0.0724535 0.0305923 0.0883289 0.118268 
130 1 0.0924525 -0.0363629 0.123527 0.15852 
143 1 -0.0174965 0.0564922 -0.0707233 0.0921915 
202 1 -0.138161 -0.066727 -0.0627333 0.16576 
182 1 -0.124158 0.0437397 -0.0062741 0.131787 
84 1 0.0412249 -0.0417829 -0.0419982 0.0721744 
3633 2 0.0195343 -0.0702631 0.0426255 0.0844715 
35 1 -0.143787 0.00520572 0.116889 0.185377 
3612 2 0.0280331 0.041394 -0.0523486 0.0723857 
40 1 0.147352 0.0912532 0.07609 0.189287 
4005 2 0.0563681 -0.078536 0.0313808 0.101637 
718 1 -0.0637143 0.00105356 -0.0539582 0.0834992 
134 1 -0.0277476 -0.0149608 0.0917382 0.0970034 
511 1 -0.0485104 -0.0609827 0.0288304 0.0830863 
757 1 0.0486565 0.144698 0.00299279 0.152689 
3555 2 -0.0658634 0.0579641 0.0369286 0.0951921 
3481 2 -0.0299356 -0.0041425 -0.0414455 0.0512935 
135 1 0.0130593 -0.0460015 -0.042892 0.0642371 
369 1 0.0451494 -0.0356125 0.103247 0.11818 
2148 1 -0.0902725 -0.0522923 0.0142909 0.105299 
3462 2 0.0462185 -0.0704462 -0.157687 0.178785 
1914 1 -0.00168041 0.0497586 0.0143742 0.0518204 
3661 2 0.0785312 -0.114398 0.0166422 0.139753 
1871 1 0.0167072 0.0311509 -0.0433534 0.0559377 
320 1 -0.0451074 -0.0253755 -0.0427695 0.0671403 
582 1 -0.0098201 -0.10522 -0.0317977 0.110358 
766 1 -0.0282071 0.0140223 0.00322313 0.0316647 
3552 2 -0.00384177 -0.0418419 0.00816789 0.0428044 
2290 1 -0.0456182 0.0336977 0.032842 0.0655374 
1794 1 0.00969459 0.033567 0.0708054 0.0789565 
753 1 -0.0635006 0.0426829 0.0427455 0.0876432 
396 1 -0.000888731 -0.0142855 0.126594 0.127401 
496 1 -0.00519156 0.0165303 -0.0895557 0.0912164 
480 1 -0.0441449 -0.0555089 0.0772411 0.104863 
253 1 0.0478974 -0.00305747 -0.00915575 0.0488604 
4033 2 -0.0133811 0.0247244 -0.0552017 0.0619482 
347 1 -0.0570923 0.0266489 0.00573748 0.0632662 
586 1 -0.0920207 0.0455211 -0.110526 0.150851 
3671 2 0.070645 0.0142939 -0.0734996 0.102943 
37 1 0.00318216 -0.100291 0.00442676 0.100439 
782 1 0.0297622 -0.115711 -0.0229085 0.121654 
481 1 0.0710055 -0.0110293 -0.0763713 0.104862 
392 1 -0.043307 0.0455132 -0.0967767 0.115381 
333 1 0.0490777 -0.0455319 -0.0187827 0.0695311 
342 1 -0.0165 -0.024151 -0.0342168 0.0450145 
1179 1 -0.0072792 -0.00769954 -0.0607798 0.0616965 
517 1 -0.00190045 -0.0800778 -0.0267727 0.0844562 
1824 1 0.0608648 -0.0468577 0.112018 0.135824 
34 1 0.0518908 0.012692 0.0352377 0.0639956 
398 1 -0.00793634 -0.0417921 -0.0686122 0.0807292 
170 1 -0.0669858 -0.0630316 -0.0537088 0.106512 
235 1 0.0335934 -0.117312 0.0674491 0.139427 
3852 2 -0.0246121 -0.0172206 -0.0117383 0.0322505 
816 1 0.0409287 -0.019823 -0.0555655 0.0718027 
3931 2 -0.119348 -0.118179 0.105015 0.198087 
274 1 -0.0267812 -0.0479721 -0.0133433 0.0565385 
30 1 0.00522496 -0.0147611 -0.0328202 0.0363642 
2066 1 0.0709586 -0.0423466 0.123863 0.148897 
1082 1 0.00155862 -0.0762684 0.0715123 0.104563 
1372 1 0.00613899 -0.0456618 0.0973786 0.107728 
1265 1 0.0870335 -0.0385544 -0.087305 0.129164 
601 1 0.00398215 0.0688753 0.0283728 0.0745968 
540 1 -0.000344407 -0.0104463 0.00727299 0.0127335 
589 1 -0.0437491 0.140816 0.0899676 0.172735 
958 1 0.108808 -0.00975443 -0.00693261 0.109464 
504 1 -0.0821968 0.0431346 -0.0245324 0.0960143 
1349 1 -0.0697355 0.0243845 -0.0581663 0.0940264 
9 1 0.0142259 -0.113413 0.0299612 0.118163 
149 1 -0.00282891 0.0724632 -0.0107988 0.0733181 
163 1 0.0243818 -0.114576 0.0253883 0.119861 
4247 2 0.014475 -0.0596774 -0.0494449 0.0788398 
1584 1 0.156578 -0.0117155 -0.0936912 0.182844 
3570 2 -0.029071 -0.083947 0.000931534 0.088843 
237 1 0.019456 0.0533271 0.0490644 0.0750309 
490 1 -0.0109353 -0.066182 -0.0225892 0.0707807 
50 1 -0.0455131 -0.0487283 0.0257341 0.0714712 
152 1 0.0587183 0.0070371 -0.0495458 0.0771502 
3652 2 -0.0273445 -0.0271949 0.00257739 0.0386514 
3823 2 0.0344363 0.0885069 -0.111882 0.146755 
902 1 0.030166 0.0638083 -0.0188205 0.0730458 
3574 2 -0.0382594 0.0590093 -0.0603007 0.0926394 
770 1 -0.0128415 -0.0662338 -0.0390155 0.077936 
154 1 -0.0156164 -0.0371461 -0.0114438 0.0418887 
116 1 0.0913572 -0.0581558 0.0451875 0.117346 
710 1 -0.0859724 -0.145048 -0.0822557 0.187606 
1956 1 -0.0213028 0.0337598 -0.0410013 0.0572245 
1810 1 -0.111319 -0.0373878 0.0742328 0.138926 
2072 1 -0.0584981 -0.0321789 0.00284607 0.0668252 
1649 1 -0.0452433 0.0210715 -0.0622011 0.0797492 
186 1 -0.0489546 0.0269043 0.0763674 0.094617 
1063 1 -0.0549032 0.0866459 -0.176168 0.203855 
432 1 -0.116526 0.0751392 -0.124991 0.186673 
2495 1 -0.0641465 -0.105083 0.0740204 0.143654 
3896 2 0.00519425 -0.0131529 -0.065672 0.0671773 
4115 2 0.0238589 -0.0037314 -0.022307 0.0328751 
913 1 0.0588781 -0.0573063 0.0293885 0.0872601 
1068 1 0.0035225 0.0160653 -0.0144812 0.0219136 
265 1 -0.0758868 0.00483453 -0.0423032 0.0870158 
1287 1 0.0353131 0.109655 0.0175405 0.116529 
3799 2 0.0603976 -0.0609721 -0.116001 0.144297 
554 1 0.0500001 -0.0714947 -0.0512286 0.101172 
1414 1 -0.0195137 0.0439524 -0.0717621 0.0863851 
213 1 0.003133 -0.0168861 0.0245193 0.0299358 
341 1 -0.077907 -0.0402908 -0.0369936 0.0951912 
3682 2 -0.0351771 0.035617 -0.0524745 0.0725229 
754 1 -0.0722424 0.0708477 0.008572 0.101547 
112 1 -0.0669645 0.0467787 0.0038576 0.0817764 
1041 1 -0.0180274 -0.0534558 0.0296662 0.0637385 
119 1 0.0178373 0.0274451 0.0631138 0.0710968 
415 1 -0.0191038 0.0420245 -0.0432692 0.0632711 
995 1 -0.06477 0.0453887 0.0249628 0.0829363 
4128 2 -0.00210027 -0.0376674 0.141417 0.146362 
8 1 0.0457154 0.061927 0.00206144 0.0770006 
94 1 0.0204697 -0.0622339 -0.00641875 0.0658275 
48 1 0.0345341 0.0251738 0.0261357 0.0500939 
437 1 -0.0258337 -0.0625639 -0.0416553 0.0794782 
3866 2 0.0595556 0.0300528 -0.0227435 0.0704791 
2206 1 0.0201037 -0.0024064 -0.0205756 0.028867 
3490 2 -0.09596 0.0122164 -0.0177138 0.098343 
3072 1 -0.0136378 -0.065443 0.0459463 0.0811162 
3002 1 0.0785505 0.101051 0.0412766 0.134481 
92 1 0.0416049 0.0888362 0.107261 0.145354 
335 1 -0.0382423 0.0769956 -0.0455495 0.0972911 
2192 1 0.00616956 -0.0086064 0.0654647 0.0663157 
1186 1 0.0244574 -0.00655746 0.00121929 0.0253505 
1114 1 0.0610597 0.022167 0.0305725 0.0717938 
1821 1 -0.0406861 -0.0654235 -0.0681126 0.102834 
1922 1 0.0314211 -0.0868215 0.0343207 0.0985047 
451 1 -0.102248 -0.0464929 -0.00410636 0.112397 
3960 2 0.000558258 -0.0369581 0.0258624 0.0451118 
100 1 -0.0272808 0.0473191 -0.0842739 0.100426 
1180 1 0.0106215 -0.0482444 -0.08286 0.0964683 
165 1 0.0667833 -0.0318852 0.000939095 0.0740105 
388 1 -0.0731538 -0.0538774 -0.0462985 0.10197 
3742 2 0.079851 -0.0512207 0.0222858 0.0974495 
323 1 -0.120019 0.139392 -0.0597964 0.193418 
288 1 -0.0650457 0.0156006 0.00418816 0.0670213 
3942 2 -0.0683451 0.0608083 0.0965291 0.132991 
66 1 0.063997 0.0314589 0.0570115 0.0912994 
340 1 -0.000291453 0.0141865 -0.0273732 0.0308324 
138 1 -0.0203532 -0.00972689 0.0162706 0.0278136 
879 1 0.00241027 -0.0164901 -0.073675 0.0755363 
3808 2 0.0691491 0.0505698 -0.014312 0.0868546 
834 1 -0.00138369 0.0216735 0.0181896 0.0283287 
18 1 -0.0713855 -0.061325 -0.0956663 0.134196 
3679 2 0.0374852 -0.0327119 -0.0281535 0.0571649 
52 1 0.0570919 -0.0401811 -0.00832908 0.0703092 
407 1 -0.0104467 -0.00323903 -0.0693272 0.0701846 
360 1 0.0595809 -0.0490501 -0.0978514 0.124622 
2885 1 -0.103197 -0.0554194 -0.0204223 0.118903 
3526 2 -0.0144607 -0.195906 -0.0575397 0.204693 
310 1 -0.0742615 -0.0383644 -0.00269739 0.0836293 
326 1 0.105364 -0.00850244 0.0588398 0.120979 
227 1 -0.0183886 -0.0352898 -0.0264669 0.0477913 
2068 1 -0.117361 -0.0370379 -0.0974687 0.156989 
456 1 0.0331116 -0.00960839 0.0350682 0.049178 
279 1 -0.0212909 0.02386 0.0951769 0.100405 
305 1 -0.038424 0.0310258 -0.0467387 0.0679964 
49 1 0.00142752 0.0909604 0.0570026 0.107355 
3512 2 0.00920614 -0.0950206 0.0426693 0.104567 
11 1 -0.0674535 -0.16375 0.0253518 0.178905 
189 1 -0.054209 0.0981059 0.0654302 0.129786 
2271 1 -0.108584 -0.0334429 -0.0146017 0.114552 
319 1 -0.0880683 -0.0535386 -0.00484325 0.103179 
3566 2 0.0115549 0.0647317 -0.0588552 0.0882476 
71 1 0.0136523 0.0112497 0.0310906 0.035771 
1560 1 -0.0231517 -0.0333551 0.0491146 0.0637244 
190 1 -0.0235863 -0.0232242 0.0744932 0.0815163 
123 1 0.0714871 0.0118356 0.0745362 0.103953 
27 1 -0.0403035 -0.000804857 -0.0327975 0.0519682 
162 1 -0.0101091 0.00548313 -0.0988607 0.0995273 
255 1 -0.0945651 0.0100192 -0.0320967 0.100365 
304 1 -0.0842582 -0.00355681 -0.0520941 0.0991257 
321 1 0.00620322 -0.0679101 0.142878 0.158317 
682 1 -0.0585923 0.035484 0.00515169 0.0686929 
3469 2 0.0576288 0.0460459 -0.086421 0.113622 
3539 2 0.0274122 0.0339241 0.0946819 0.104245 
128 1 0.0602112 -0.0469767 -0.0645798 0.100014 
3562 2 0.104299 0.0270502 0.0895577 0.140109 
560 1 -0.12871 -0.05378 -0.0079214 0.139719 
212 1 -0.0460697 0.0511356 -0.031761 0.0758025 
355 1 0.0223872 0.0630269 0.103574 0.123293 
156 1 0.0430052 0.0710747 0.0656819 0.105902 
3620 2 0.013638 -0.0576052 -0.0117132 0.0603453 
1823 1 0.17377 -0.12279 -0.0899864 0.231021 
1805 1 -0.0527994 0.0702921 0.0908469 0.12642 
2599 1 -0.0583141 0.0136028 0.0376623 0.0707391 
327 1 0.0472684 0.00539197 0.0132593 0.0493881 
137 1 0.0619541 0.0113806 0.0460286 0.0780158 
2334 1 -0.00847252 0.0426307 0.0415693 0.0601429 
3698 2 0.0367581 -0.0710909 0.0119859 0.0809243 
555 1 -0.0167026 -0.0488324 -0.0527599 0.0738051 
4178 2 0.0210028 -0.0774143 0.0495 0.0942568 
290 1 -0.0107511 0.0472409 -0.0129393 0.050147 
284 1 0.00160939 0.0150272 -0.0530962 0.0552052 
3543 2 -0.0150128 -0.0163164 0.0374991 0.0435636 
366 1 0.0324431 -0.0417681 0.0542385 0.0757558 
55 1 -0.0173201 0.0427187 -0.0131147 0.0479257 
273 1 -0.0244386 -0.0602216 -0.0223078 0.0687134 
3468 2 0.0723452 0.00865409 0.0511926 0.0890472 
316 1 0.110886 -0.0104081 0.106457 0.154068 
81 1 -0.0624313 0.00558844 0.0154234 0.0645506 
322 1 0.0366343 -0.0339303 0.0181431 0.0531273 
239 1 -0.0165806 0.0194471 -0.0599694 0.0651877 
734 1 -0.031018 -0.0768782 -0.047918 0.0957523 
384 1 0.0919616 -0.0613508 -0.0729866 0.132468 
3476 2 -0.00187615 0.0975048 0.00907092 0.0979438 
311 1 -0.0215356 -0.0496742 -0.0793306 0.096045 
3471 2 0.0100066 0.0299992 0.0378699 0.0493377 
1938 1 0.0414912 -0.0657217 -0.00369724 0.0778109 
139 1 0.14329 -0.0401199 -0.00924015 0.149087 
727 1 0.0713741 -0.0506648 0.0518185 0.101717 
1885 1 -0.00225102 0.0327067 -0.0694704 0.0768175 
2184 1 0.127461 0.161263 -0.0935523 0.225841 
2494 1 -0.154901 -0.055884 -0.148195 0.221538 
2091 1 -0.0320479 0.000238734 -0.0631935 0.0708558 
281 1 0.0356376 0.102847 0.111237 0.155632 
863 1 0.0167241 0.082267 -0.04362 0.0946058 
176 1 -0.0749186 0.0631897 -0.0468058 0.108612 
3710 2 -0.00495253 0.0677231 -0.0458077 0.0819102 
3572 2 -0.00251597 -0.0964967 -0.0715353 0.120147 
4197 2 -0.0750023 0.0606738 -0.0485419 0.107995 
343 1 -0.0263959 -0.0409563 -0.111626 0.121797 
282 1 -0.0343636 -0.0376218 -0.0229492 0.0558831 
1038 1 -0.0130833 0.0757154 0.0340533 0.0840453 
408 1 0.170594 0.0508292 -0.0206388 0.179198 
412 1 0.139303 -0.054555 -0.0146635 0.150322 
820 1 0.114981 0.0128246 0.0496215 0.125886 
585 1 -0.0767526 -0.0390125 -0.0823895 0.119168 
3609 2 0.0561019 -0.0873925 0.0145817 0.104869 
719 1 -0.0167338 0.0678109 -0.026007 0.0745299 
608 1 0.0126931 0.0271823 0.0155345 0.0337833 
106 1 -0.0108752 0.0588623 0.0555873 0.0816884 
1047 1 -0.116697 -0.034651 -0.0248596 0.124245 
3573 2 0.0120002 0.0340867 -0.0689479 0.0778442 
751 1 -0.0158215 -0.0177493 -0.0674755 0.0715423 
259 1 0.0676107 -0.048673 0.0113965 0.0840842 
245 1 -0.0809012 -0.030996 -0.0380495 0.0946231 
613 1 -0.0492253 -0.0291519 0.126958 0.139252 
4296 2 -0.0291414 0.0478925 0.0269716 0.0622124 
272 1 -0.106623 -0.107458 -0.0219998 0.15297 
4239 2 -0.0477438 -0.110321 -0.0646555 0.136493 
88 1 0.0763455 0.096031 0.0861187 0.14989 
4 1 0.0948289 -0.00998759 -0.0708029 0.118766 
361 1 0.0795515 0.103459 -0.139752 0.191214 
358 1 -0.0479983 -0.0268574 -0.034898 0.0651385 
194 1 0.00760386 0.0382757 -0.0820648 0.0908706 
2373 1 0.0163217 -0.00699874 -0.100945 0.102495 
1982 1 0.0213025 -0.00330621 0.0259635 0.0337466 
3953 2 0.000675335 0.0227118 0.0725516 0.0760264 
414 1 0.0203002 0.0192722 -0.0571973 0.0636793 
3186 1 0.0880375 -0.085248 0.0123629 0.123169 
177 1 0.0580489 -0.0373442 0.0585119 0.090487 
1962 1 -0.0389348 0.0547324 0.0905262 0.112723 
706 1 0.022263 0.00189918 -0.0382978 0.0443392 
1544 1 -0.00855594 -0.0814507 0.0430823 0.0925392 
4160 2 -0.0332943 0.0192422 -0.0217867 0.0441977 
19 1 -0.0449825 -0.00140015 -0.0950477 0.105164 
3624 2 -0.0045195 -0.0138089 -0.0626802 0.0643422 
115 1 0.103937 -0.0710216 -0.0322532 0.129951 
1102 1 -0.0737868 -0.0182426 0.00762556 0.07639 
2048 1 0.0591148 -0.021179 -0.0385805 0.0736992 
649 1 0.0461534 0.115625 -0.0448015 0.132312 
113 1 0.0433075 -0.020704 -0.0059745 0.0483724 
1150 1 0.0181808 -0.00591723 0.0550492 0.0582749 
620 1 -0.0335599 -0.01501 -0.00822122 0.0376717 
739 1 -0.0881451 -0.0292236 0.0176362 0.0945231 
2412 1 0.0148 0.0491466 -0.0101284 0.0523165 
3746 2 0.0861081 0.031072 -0.154618 0.179686 
1225 1 0.00748143 0.0620973 0.0878948 0.107877 
241 1 0.094793 0.0181833 -0.00113348 0.0965279 
83 1 0.0291913 0.0163784 -0.0214261 0.0397424 
1006 1 0.0341503 0.00546793 -0.00416272 0.0348349 
4046 2 -0.0607577 -0.0918778 -0.0390027 0.116851 
96 1 0.0142017 -0.112183 0.00556753 0.113215 
411 1 0.0697313 0.0595862 0.0807543 0.122206 
2454 1 -0.0647414 0.0142848 0.00430138 0.066438 
404 1 -0.0787848 0.0628788 0.0715465 0.123611 
226 1 0.0525851 -0.0183396 0.0747704 0.0932317 
534 1 0.0406251 -0.0220244 0.114891 0.123836 
3538 2 -0.00400091 0.0437159 -0.0358511 0.0566779 
761 1 0.0667732 -0.0230472 0.0427306 0.0825574 
246 1 0.083591 -0.0705327 0.0274079 0.112754 
2229 1 0.00187232 -0.110768 0.0121524 0.111449 
146 1 -0.0042915 -0.0194997 -0.0553291 0.0588215 
3608 2 0.0678737 -0.00975111 0.00339738 0.0686547 
503 1 -0.0340593 -0.000914446 0.0403572 0.0528164 
505 1 0.105127 -0.0367597 0.00731769 0.111608 
1430 1 -0.0868907 -0.0391078 -0.0221277 0.0978216 
97 1 -0.0289528 0.0398344 -0.0787882 0.092912 
1723 1 0.0351242 0.00418855 -0.0853377 0.0923784 
3561 2 0.0508494 0.126046 -0.0339 0.14008 
20 1 -0.0655773 -0.0703592 -0.00813584 0.0965246 
263 1 -0.0592688 0.132429 0.00476788 0.145165 
817 1 0.0912542 -0.0623528 0.0164878 0.111745 
1034 1 0.0242617 0.0208397 0.0170558 0.0362467 
353 1 0.0404437 -0.00464613 0.123973 0.130486 
1260 1 0.0544185 0.103222 -0.0246051 0.119254 
998 1 0.0266972 0.0634633 -0.052823 0.086779 
1932 1 0.0937425 -0.138588 -0.0242356 0.169061 
36 1 0.0934315 -0.119023 3.22912e-05 0.151314 
38 1 -0.00571122 -0.00097805 -0.0720681 0.0723007 
3130 1 -0.0245404 -0.000128204 -0.0492868 0.0550585 
1973 1 0.0814371 -0.0253204 0.136953 0.161336 
307 1 0.00516029 -0.0553923 -0.0640611 0.0848455 
2714 1 0.0861417 0.0382204 0.0188903 0.0961147 
28 1 0.05306 0.0208681 0.00670425 0.057409 
1937 1 -0.000250545 0.0281216 -0.0447182 0.0528262 
562 1 -0.0753062 -0.109816 0.00508866 0.133254 
3011 1 -0.05812 -0.00696973 0.00467527 0.0587228 
410 1 0.0858003 -0.0431443 0.0319275 0.101205 
693 1 0.067289 0.103737 0.0955009 0.156236 
367 1 -0.0233113 0.00414582 -0.000606306 0.0236849 
318 1 0.0714356 0.0336787 -0.0583248 0.0981788 
735 1 0.0998176 -0.0269438 0.0191113 0.105142 
600 1 -0.021752 0.0674457 0.0317024 0.0776345 
3590 2 -0.0461554 0.0524203 -0.0302457 0.0761118 
3636 2 0.0451541 -0.0996715 0.052201 0.121236 
26 1 -0.0914814 0.0664225 0.0590748 0.127556 
1199 1 0.0389629 0.0132974 -0.0663515 0.0780862 
614 1 -0.0245876 -0.0387837 -0.0157757 0.0485551 
459 1 0.0330837 -0.0770949 -0.0583003 0.102162 
3645 2 0.0710904 0.105498 0.0512609 0.137154 
574 1 0.0420104 0.0224794 0.0198838 0.0516291 
780 1 0.10027 -0.00830926 -0.00547389 0.100763 
161 1 -0.0734425 0.016993 -0.0111192 0.0761984 
309 1 0.116759 0.0666381 0.016433 0.135437 
365 1 0.0150197 -0.135527 -0.0432237 0.143044 
191 1 -0.0613355 0.0721085 0.0134417 0.0956157 
1766 1 -0.0214019 0.0635499 -0.0448421 0.0806687 
2775 1 0.0282978 -0.0782592 -0.0635136 0.104686 
1030 1 0.075495 -0.0565294 0.0285045 0.098527 
1505 1 0.112306 0.133201 0.110676 0.206408 
3872 2 0.000466535 0.0352803 -0.00528211 0.0356765 
580 1 -0.0385118 -0.0425562 -0.00963312 0.0581978 
2054 1 -0.106636 -0.0670863 -0.0576679 0.138554 
2064 1 0.0896113 0.00731055 -0.0593592 0.107737 
529 1 -0.00737438 0.0484357 -0.081704 0.0952678 
402 1 -0.0153913 0.0504164 0.0144789 0.0546657 
124 1 -0.0015987 -0.0878949 0.0403276 0.0967181 
744 1 0.0929263 0.00971595 0.0172485 0.0950116 
185 1 0.0814544 -0.0406616 0.0983554 0.134022 
315 1 -0.0317245 -0.047468 -0.0473969 0.0742033 
655 1 -0.0369554 -0.0240649 0.120738 0.12854 
765 1 -0.0186191 0.0763061 0.0249186 0.0824028 
140 1 0.0323314 0.0748339 -0.0653845 0.104502 
59 1 -0.0439163 -0.0151496 0.0428147 0.0631764 
54 1 0.00564961 0.0119919 0.0194997 0.0235789 
3506 2 -0.00907143 0.083936 -0.0669443 0.107745 
666 1 -0.0470433 -0.112787 0.0734048 0.142556 
43 1 0.0633005 0.105539 0.0716295 0.142395 
334 1 -0.00956639 0.00172997 0.00456231 0.0107389 
267 1 0.127715 0.0407397 -0.0246353 0.1363 
99 1 0.0599165 0.0741484 0.0854882 0.128048 
1189 1 -0.0837009 -0.0459906 -0.13575 0.165979 
201 1 -0.00697961 -0.0857607 -0.0544909 0.101847 
380 1 0.0270766 0.113737 -0.148565 0.189053 
1777 1 0.0180837 -0.016502 -0.0440742 0.050417 
2597 1 0.232478 -0.0274557 -0.0394746 0.237398 
2484 1 0.119218 -0.0540429 -0.0926652 0.160376 
308 1 -0.0379903 -0.0206531 -0.0322419 0.0539384 
3918 2 -0.0391254 0.0717497 0.0352735 0.0890114 
89 1 -0.072939 0.0552882 -0.0334189 0.0974356 
300 1 -0.00872928 0.0167581 -0.000961761 0.0189198 
3582 2 0.0193982 0.0428044 0.0150828 0.0493559 
712 1 -0.0815875 0.0480738 0.0635385 0.114038 
3836 2 -0.0135288 0.0394463 -0.0654295 0.077589 
268 1 0.0133252 -0.00905448 -0.00566946 0.0170788 
788 1 -0.00647319 0.0678898 -0.100418 0.121387 
4091 2 0.000402237 0.137766 0.00201172 0.137781 
371 1 0.0432714 0.067418 0.0861258 0.117623 
3505 2 0.0235125 -0.0188837 0.0768272 0.0825339 
266 1 0.0634188 -0.0636971 -0.0479042 0.101853 
3571 2 -0.0399182 0.00677462 0.0538923 0.0674073 
637 1 -0.00644862 -0.000870747 -0.0713556 0.0716517 
157 1 -0.0164515 0.00227246 0.0444033 0.0474075 
257 1 0.0307036 0.0306046 0.0169449 0.0465455 
571 1 -0.0407947 0.0259153 -0.0387342 0.0619367 
665 1 -0.126521 0.00392037 0.151493 0.197415 
448 1 -0.0869899 -0.0562724 0.0261058 0.106843 
827 1 0.097079 0.0985167 -0.00533153 0.138413 
3475 2 0.0210261 0.000472747 0.0397352 0.0449578 
73 1 -0.0255969 0.0931091 -0.00202145 0.0965846 
373 1 0.0783389 -0.0290081 0.0774295 0.113902 
247 1 0.0157598 -0.0283455 -0.0435924 0.0543336 
107 1 0.0582985 0.0197894 0.00297096 0.0616374 
675 1 -0.0328851 0.0671191 -0.103898 0.127989 
434 1 -0.0198842 0.0595235 0.0264141 0.0680892 
159 1 -0.0594953 0.0320849 -0.0146025 0.0691547 
32 1 0.0543956 0.0800498 0.00988768 0.0972862 
3579 2 0.0498761 -0.0705924 -0.045336 0.0976026 
394 1 -0.037516 0.0153165 0.0497383 0.0641556 
260 1 -0.044604 0.0361572 0.0124301 0.0587484 
3972 2 -0.0496798 0.0289934 0.0974818 0.113187 
1801 1 -0.0669656 0.0207942 0.067273 0.0971722 
2122 1 -0.0268811 0.00441035 0.103457 0.106983 
1966 1 0.0045635 -0.0443335 -0.0728958 0.0854405 
291 1 -0.00715068 0.0151847 0.0231926 0.0286287 
2047 1 0.0727899 0.0125695 0.0631045 0.0971521 
1899 1 -0.000671967 0.0934608 0.0103549 0.0940351 
622 1 -0.059208 0.0419242 0.00722412 0.0729069 
1993 1 -0.0236425 -0.00194368 -0.0180117 0.0297853 
62 1 0.0327955 0.0710572 0.0427641 0.089182 
2187 1 -0.0161394 -0.0152121 -0.10233 0.104705 
4318 2 0.0562956 -0.0290019 -0.00374671 0.0634377 
44 1 -0.0221359 -0.0390555 0.0687613 0.0821185 
824 1 0.00867263 -0.00995183 0.042764 0.044755 
1282 1 -0.0176494 0.0143425 0.102436 0.104931 
3626 2 0.0743657 0.0604694 -0.0201483 0.0979426 
819 1 0.0352342 0.0389302 0.0818128 0.0972129 
773 1 -0.106015 -0.106163 0.031915 0.153389 
270 1 0.0152743 -0.0667876 0.0145632 0.0700427 
14 1 -0.0758342 0.00853699 -0.0527603 0.0927758 
3540 2 0.0510927 -0.0187402 -0.015006 0.0564521 
997 1 0.0935353 -0.0452837 -0.0175956 0.1054 
4275 2 -0.0261181 -0.0695317 -0.0953972 0.120903 
164 1 0.0586258 0.0585527 0.14669 0.168474 
234 1 -0.0179828 -0.0593269 0.0670898 0.0913461 
1125 1 -0.00702711 0.0510518 -0.0694375 0.086471 
3985 2 -0.0775079 -0.00781965 0.0872828 0.116991 
328 1 0.0313664 0.0169698 -0.0446531 0.0571465 
3474 2 0.00566901 0.0110429 -0.0331046 0.0353553 
543 1 -0.0786903 -0.00970362 -0.0134009 0.0804108 
293 1 0.0896379 -0.0508368 0.045548 0.112667 
3458 2 0.0670504 -0.0515803 0.0724113 0.111354 
390 1 -0.0161568 -0.0418517 -0.0161406 0.0476773 
3706 2 0.104957 -0.129095 -0.0618603 0.177506 
2169 1 0.0781105 0.0857887 -0.00070826 0.116023 
1786 1 -0.0174089 0.0188094 -0.0832627 0.087118 
1478 1 0.00401793 -0.00130397 0.138433 0.138498 
87 1 0.0118853 -0.0225598 -0.0260728 0.0364691 
4090 2 -0.00237317 -0.0522816 0.0419452 0.0670701 
142 1 -0.0157918 0.0293429 0.0524516 0.0621414 
1650 1 -0.0775272 -0.0620344 -0.0808301 0.128032 
153 1 0.00708714 0.0387198 0.0104312 0.0407218 
374 1 0.0658829 -0.0118846 -0.0335456 0.0748807 
602 1 0.00756251 -0.0643857 -0.0455557 0.0792341 
1277 1 -0.0567673 0.0183636 0.0171115 0.0620689 
76 1 -0.0174074 -0.0488633 0.0832478 0.0980858 
1370 1 0.0578286 -0.032854 0.0996466 0.119804 
221 1 -0.00859854 0.0592458 -0.0405812 0.0723245 
604 1 -0.0129852 0.0610826 0.096927 0.115302 
1161 1 -0.0745098 -0.0307942 0.00889762 0.081112 
1718 1 -0.129498 0.0206893 -0.111668 0.172243 
178 1 0.0231856 -0.170765 -0.00807813 0.172521 
295 1 -0.0998674 -0.0528802 0.0220133 0.115128 
1472 1 -0.0689489 -0.0454363 0.0265512 0.0867374 
4159 2 -0.0107643 -0.0405702 -0.0332154 0.0535263 
3467 2 0.107444 -0.012331 0.0237818 0.110733 
3531 2 0.00773851 -0.0511292 0.117268 0.128164 
2720 1 -0.0963625 0.0775389 -0.0555041 0.135568 
1851 1 -0.00342343 0.0172119 -0.00240701 0.0177134 
732 1 -0.043296 -0.0952731 0.0158947 0.10585 
4009 2 0.00141904 0.118446 -0.0181811 0.119841 
3878 2 0.02728 0.028272 -0.028153 0.0483332 
3185 1 -0.150746 -0.0435097 0.0313574 0.160003 
110 1 -0.0493287 -0.0228616 0.0337629 0.0639993 
2963 1 -0.0343228 -0.00869616 -0.0325154 0.0480722 
2608 1 -0.043618 0.0115008 -0.0222172 0.0502832 
3301 1 0.00127583 0.0026764 0.0390292 0.0391417 
3759 2 -0.0272875 -0.00921636 -0.0187797 0.0343835 
4171 2 -0.0340792 0.0221771 7.8908e-05 0.0406599 
2118 1 0.000321691 0.0665217 -0.0383822 0.0768013 
1742 1 0.0542052 -0.0701426 0.0248534 0.0920645 
642 1 0.0322243 -0.146326 0.0698845 0.165328 
3366 1 -0.0444224 0.0142098 0.0940683 0.104996 
144 1 0.145997 0.142843 0.0209571 0.205325 
681 1 0.0568651 -0.048338 -0.0938835 0.119935 
1666 1 0.104402 -0.0532744 -0.031476 0.121362 
183 1 -0.109194 -0.0728902 -0.0341024 0.135644 
694 1 -0.150602 0.0126815 0.0746111 0.168548 
444 1 -0.0303061 0.0611187 -0.10998 0.12942 
869 1 -0.0346463 -0.124994 0.107753 0.168626 
920 1 -0.00438326 -0.0957462 -0.046123 0.106367 
53 1 0.0422755 0.0010409 0.0346505 0.0546714 
1450 1 -0.184967 -0.0541345 -0.0487018 0.198785 
1579 1 0.119796 -0.0923058 0.0694361 0.166411 
51 1 0.102869 0.0350228 0.0139702 0.109562 
4187 2 -0.104329 -0.066497 -0.182963 0.220866 
1694 1 -0.00846478 -0.10751 0.107662 0.152385 
1590 1 0.0245376 0.0252433 -0.0593187 0.0689784 
2005 1 -0.0207878 -0.00686285 0.128164 0.13002 
736 1 -0.0595067 -0.00703741 -0.0534808 0.0803167 
363 1 0.0583563 -0.00122374 0.035898 0.0685246 
230 1 0.0252345 0.0342246 0.162734 0.168198 
2538 1 0.0161997 -0.0027561 -0.0691928 0.0711173 
357 1 -0.0832551 0.00467855 0.00917709 0.0838899 
3849 2 0.126632 -0.0277813 -0.0239961 0.131846 
4102 2 0.0506619 -0.113287 0.0445413 0.13185 
1032 1 0.073311 -0.0125334 0.021785 0.0774995 
78 1 -0.0063071 0.0411118 -0.0341323 0.053805 
564 1 0.14913 -0.00489767 0.11597 0.188978 
797 1 0.149536 -0.0538123 -0.0563753 0.168626 
1476 1 0.160396 -0.0292808 -0.0281283 0.165455 
872 1 -0.0966523 -0.0344227 -0.0769489 0.128249 
475 1 -0.0456464 0.00614477 0.0314501 0.0557715 
4119 2 0.146408 -0.087844 -0.0778536 0.187651 
576 1 -0.149453 0.0367042 0.0623235 0.166035 
507 1 0.0598129 -0.0478741 0.0218981 0.0796809 
248 1 0.0831943 -0.0521219 -0.0117508 0.098874 
3597 2 -0.0633526 0.0471846 0.0581383 0.0980816 
539 1 0.00905961 0.0141829 0.0832616 0.0849455 
63 1 0.0685132 0.021733 0.0525284 0.0890259 
57 1 -0.0845972 -0.00262893 0.00428686 0.0847465 
854 1 -0.00285035 0.0506731 0.0131524 0.0524297 
668 1 0.11847 -0.0956282 -0.12475 0.196831 
385 1 -0.106536 -0.192631 0.018373 0.220894 
752 1 0.0371227 0.0122683 -0.00850034 0.0400108 
3650 2 0.00251247 0.108839 -0.00410309 0.108945 
3736 2 -0.0837135 -0.123537 -0.0298312 0.152181 
254 1 -0.0864733 -0.12218 -0.0187065 0.150849 
3637 2 -0.0139508 0.0107158 0.0980201 0.0995861 
731 1 0.0354476 0.0122258 -0.0601404 0.0708722 
2304 1 0.10958 -0.0723103 -0.069447 0.148524 
610 1 -0.106302 -0.0131201 -0.107322 0.151625 
292 1 -0.0887726 0.0158318 0.0139143 0.0912405 
313 1 -0.0975968 -0.000463411 0.0436306 0.106906 
2133 1 0.000423057 -0.122965 0.0138762 0.123746 
646 1 -0.0900587 -0.0131917 -0.0542706 0.105971 
271 1 -0.0124275 0.0709204 0.0757593 0.104516 
584 1 -0.0376804 0.0618625 -0.0951609 0.119593 