ITEM: TIMESTEP
22
ITEM: NUMBER OF ATOMS
4320
ITEM: BOX BOUNDS pp pp pp
0.0000000000000000e+00 1.9309999999999999e+01
0.0000000000000000e+00 1.9309999999999999e+01
0.0000000000000000e+00 9.6549999999999994e+00
ITEM: ATOMS id type c_displacement[1] c_displacement[2] c_displacement[3] c_displacement[4] 
4012 2 -0.00230766 -0.0310669 -0.00198353 0.0312156 
2361 1 -0.00694329 0.00805296 -0.0249856 0.027154 
79 1 -0.0332316 -0.0473685 0.0252028 0.0631133 
781 1 0.04593 0.000819536 -0.000825276 0.0459447 
461 1 -0.0119651 -0.0257776 -0.0102085 0.0301971 
3704 2 -0.014123 -0.0307721 0.0265896 0.043051 
629 1 -0.0310005 0.00179417 0.0260551 0.0405354 
1571 1 0.00251616 0.0116359 -0.0238334 0.0266412 
58 1 0.0669419 0.000541151 0.104982 0.12451 
1073 1 -0.0143829 -0.0358386 0.0109418 0.0401373 
372 1 -0.00408312 0.0150572 -0.0191917 0.0247328 
3504 2 0.00506176 -0.053183 0.0213271 0.057523 
4130 2 -0.0184033 -0.0171386 -0.0222496 0.0335776 
1262 1 0.0169095 0.0582369 -0.0528295 0.0804265 
907 1 -0.0462933 -0.0350623 -0.083162 0.101432 
3659 2 0.0383782 0.0973575 -0.0552342 0.118331 
1298 1 0.0530334 0.0364877 -0.0445737 0.0782989 
1716 1 -0.000486188 0.073282 -0.030362 0.0793243 
1182 1 -0.0108002 0.00338391 0.0170414 0.0204574 
683 1 0.00127783 -0.0165903 0.0323619 0.036389 
1958 1 0.0355254 -0.0568185 0.0409028 0.0785076 
1554 1 -0.000881574 -0.0481475 -0.0256481 0.0545599 
1037 1 -0.0309694 -0.112206 0.0136507 0.117199 
749 1 -0.0648831 -0.0150454 0.0262667 0.0715969 
3628 2 0.0498517 0.0351077 0.032496 0.0690922 
946 1 -0.0248937 0.0110429 -0.0293171 0.0400142 
2232 1 0.0332453 0.010836 -0.0485488 0.0598302 
7 1 0.0120707 -0.0114506 -0.00511409 0.0174061 
501 1 0.0246461 0.0805183 -0.0593118 0.102998 
179 1 -0.0123547 -0.0121676 -0.0686753 0.0708307 
714 1 1.32017e-06 -0.0248141 0.0798533 0.0836199 
4166 2 0.00494588 -0.0288236 -0.048769 0.0568654 
276 1 -0.0230627 0.0347997 0.0404254 0.058113 
767 1 -0.0432253 -0.00893932 0.0564575 0.0716644 
3890 2 -0.0844867 -0.0198139 -0.0475591 0.0989569 
6 1 -0.0106294 0.0478441 0.0113727 0.0503128 
2086 1 -0.00874154 -0.00339784 0.032538 0.0338627 
224 1 -0.0086793 -0.00781871 -0.0007357 0.0117049 
3660 2 0.0317997 0.0339912 0.00626791 0.0469671 
596 1 -0.0368834 -0.00754185 -0.0257801 0.0456276 
1214 1 -0.00791909 -0.0299605 -0.012895 0.0335652 
3686 2 0.0294697 0.0232001 0.00302819 0.0376282 
427 1 -0.0284795 0.0486213 0.0397859 0.0689785 
350 1 0.00295554 0.0402458 0.0183883 0.0443462 
85 1 -0.0223093 -0.0114609 -0.0139557 0.0287023 
598 1 -0.0303295 -0.00598125 0.0671258 0.0739021 
3554 2 -0.000747985 -0.0199856 -0.0144203 0.0246562 
29 1 -0.00944369 0.0441693 0.0288811 0.0536118 
464 1 -0.0340922 0.0209491 -0.0131885 0.0421317 
3619 2 -0.0111395 0.0189277 0.046131 0.0510922 
12 1 0.0613129 -0.114105 0.05397 0.140328 
364 1 -0.0563301 0.0353092 -0.0245955 0.0708855 
1849 1 -0.0803107 -0.0187881 0.0446943 0.0938103 
3663 2 -0.0515053 0.0256133 -0.0617858 0.0844175 
3517 2 0.030793 0.0148876 0.0360344 0.0496823 
25 1 0.0589521 -0.0309059 -0.00690444 0.0669194 
4163 2 -0.023243 0.0202327 -0.00972365 0.0323133 
399 1 -0.00438995 0.00401387 -0.00839974 0.0102926 
4265 2 -0.0127472 0.0425198 0.00578461 0.0447648 
527 1 -0.0290853 0.00688293 -0.019665 0.0357776 
200 1 0.0400613 0.00563744 0.0102554 0.0417356 
1951 1 0.0567744 0.0317174 0.0091301 0.065671 
644 1 0.026352 -0.0262321 0.0430777 0.0569056 
193 1 -0.0111293 0.0573121 -0.0207789 0.0619702 
550 1 -0.00424878 -0.0225417 -0.00497768 0.0234725 
69 1 -0.0143715 -0.0428739 0.0327073 0.0558075 
842 1 -0.0244984 0.026313 -0.0711802 0.0797443 
578 1 -0.0469902 0.0310596 -0.0139257 0.0580233 
172 1 0.00573095 -0.0668299 0.0146813 0.0686631 
381 1 -0.0167485 0.0662245 -0.0497 0.0844766 
3524 2 0.0482057 -0.0578237 0.0511355 0.0910067 
688 1 -0.0157536 0.0450709 0.00526416 0.0480341 
3651 2 -0.00152233 0.0386579 0.000329558 0.0386893 
2367 1 0.00807812 0.0152805 -0.0102974 0.0201193 
1244 1 -0.0280298 0.0406978 0.0439593 0.0661393 
796 1 -0.0707005 0.0423224 -0.00856107 0.0828435 
691 1 0.0384104 -0.00512233 0.0108636 0.0402444 
421 1 0.00236483 0.0081128 0.0784198 0.0788738 
597 1 -0.042395 0.0399809 -0.0152902 0.0602462 
3617 2 -7.79965e-05 0.0140258 -0.0389856 0.0414319 
120 1 0.0284274 0.00957104 0.00422894 0.030292 
769 1 -0.0284271 0.0292694 0.0246581 0.0476741 
2142 1 0.00658463 0.00672673 -0.00300429 0.0098809 
3611 2 0.0633941 0.0431552 0.0554806 0.0946535 
1915 1 -0.0260999 0.0245778 -0.00732799 0.036592 
2140 1 -0.0202703 0.00791914 0.0499095 0.0544477 
3828 2 0.059928 0.00828044 0.0199664 0.0637071 
2192 1 0.0286962 -0.019315 0.0436884 0.0557245 
175 1 0.0404732 0.0311565 -0.0292317 0.0588498 
2011 1 0.031802 0.0240061 -0.0169989 0.04332 
75 1 -0.0190216 0.0311256 0.0343591 0.0501116 
547 1 -0.0389637 0.0184098 -0.0189787 0.047088 
4316 2 0.000471503 0.0179993 0.0067843 0.0192412 
559 1 0.0097221 0.0123481 -0.0325379 0.0361346 
717 1 0.0407279 0.00244874 -0.00975661 0.0419518 
242 1 0.00683914 -0.00738585 0.0360639 0.0374424 
3510 2 -0.0171235 0.00859487 0.0140698 0.0237707 
130 1 0.0133365 -0.0341441 0.046085 0.0588855 
143 1 -0.00653598 0.012992 -0.0238094 0.0278998 
202 1 -0.0619069 -0.00833351 -0.0443758 0.0766233 
182 1 -0.0690786 0.0393845 -0.00278286 0.0795659 
84 1 0.0154237 -0.0499788 -0.0377195 0.0644867 
3633 2 0.00569306 -0.0413395 0.0378087 0.0563104 
35 1 -0.0771245 -0.0475963 0.0454767 0.101399 
3612 2 0.00914683 0.0403167 -0.0725965 0.0835426 
40 1 0.0652653 0.0464772 0.0341665 0.0871036 
4005 2 0.0336852 -0.0448962 0.0108358 0.0571645 
718 1 0.00819947 0.0413634 -0.0137938 0.044367 
134 1 0.005713 -0.0402036 0.0114134 0.042181 
511 1 -0.0152486 -0.0597822 0.0684131 0.0921238 
757 1 0.0372566 0.0855289 -0.00578549 0.0934704 
3555 2 -0.0434536 0.0025287 0.00651326 0.0440118 
3481 2 -0.0116845 0.0229962 -0.00473237 0.0262249 
135 1 0.00930366 -0.0362538 0.00755757 0.038184 
369 1 0.0249664 -0.0233926 0.0618304 0.070665 
2148 1 -0.0204824 -0.00847993 -0.0218185 0.0311044 
3462 2 0.0301673 -0.0457686 -0.0687781 0.0879503 
1914 1 -0.0266816 -0.0144151 -0.00431099 0.0306315 
3661 2 0.0360863 -0.0411373 0.0153549 0.0568355 
1871 1 0.0173221 0.010882 -0.0137396 0.0246424 
320 1 -0.0260738 -0.0197996 -0.0230393 0.0400334 
582 1 -0.0184119 -0.0528423 0.0138649 0.0576502 
766 1 -0.0258582 0.00977144 -0.00809602 0.028804 
3552 2 -0.004005 -0.0307297 0.011662 0.0331113 
2290 1 -0.0235587 0.0369625 0.0399727 0.0593217 
1794 1 0.00664784 -0.0181486 0.0118596 0.0226763 
753 1 -0.0581242 0.0192568 -0.00700623 0.0616307 
396 1 -0.0111879 -0.0264146 0.0397622 0.0490299 
496 1 -0.00321415 0.0411462 -0.0370452 0.0554589 
480 1 -0.0206781 -0.0361483 0.0391595 0.0571642 
253 1 0.0300219 0.0011351 -0.0100325 0.0316742 
4033 2 0.00318912 0.0154627 -0.0179362 0.0238951 
347 1 -0.03669 0.00240241 0.0394397 0.0539205 
586 1 -0.0247711 0.0163802 -0.0648975 0.0713695 
3671 2 0.0726101 0.00621385 -0.0647891 0.0975113 
37 1 -0.00721154 -0.0248831 0.0113192 0.0282719 
782 1 0.0127924 -0.0346062 -0.00449294 0.0371675 
481 1 0.0186417 -0.00613442 -0.0386556 0.043352 
392 1 -0.0334657 0.0156275 -0.0624717 0.0725733 
333 1 0.0117884 -0.0279947 -0.0202865 0.0365269 
342 1 0.00943894 0.0187902 -0.0267033 0.0339887 
1179 1 -0.0100871 0.00449013 -0.0258456 0.0281052 
517 1 -0.014637 -0.0196632 -0.0254828 0.0353589 
1824 1 0.0343256 -0.023656 0.0729164 0.0839919 
34 1 -0.00536393 0.0179572 0.0284673 0.0340826 
398 1 0.0164135 -0.00842892 -0.0162328 0.0245755 
170 1 -0.0415534 -0.0285655 -0.0255371 0.0565227 
235 1 0.00467145 -0.0797755 0.0051812 0.08008 
3852 2 -0.00908277 -0.0475488 -0.00583085 0.0487584 
816 1 0.0254375 0.000463732 0.00521244 0.0259702 
3931 2 -0.0419127 -0.0558067 0.0678764 0.0973564 
274 1 -0.0251291 -0.0262675 -0.0167505 0.0400254 
30 1 0.0276445 0.0032138 -0.0147659 0.0315052 
2066 1 0.0518243 -0.0355718 0.0527336 0.0820484 
1082 1 0.0228036 0.0120299 0.0157454 0.0302099 
1372 1 0.00237995 -0.0132391 0.0463691 0.0482807 
1265 1 0.0293206 0.0021503 -0.048309 0.0565515 
601 1 0.0372807 0.0271424 0.0422003 0.0625094 
540 1 0.0169939 0.0361791 0.0317306 0.0510348 
589 1 -0.0176535 0.0625111 0.0167394 0.0670782 
958 1 0.0239144 0.0125228 -0.0328054 0.0424843 
504 1 -0.0505237 0.0247356 0.00457079 0.0564392 
1349 1 0.00100962 0.0452938 0.00400916 0.0454821 
9 1 -0.00232812 -0.0536906 0.0230705 0.0584838 
149 1 0.0155155 0.0337229 0.0231235 0.043734 
163 1 0.0223983 -0.00107492 -0.0292359 0.0368453 
4247 2 0.00800714 -0.020328 -0.0407041 0.046197 
1584 1 0.0836234 -0.0142466 -0.0777738 0.115085 
3570 2 -0.0258785 -0.0298005 -0.00445476 0.0397192 
237 1 0.0119231 0.021112 -0.00491147 0.0247386 
490 1 -0.012327 -0.0257523 0.0272552 0.0394713 
50 1 -0.0289701 -0.0655342 0.0300973 0.0777164 
152 1 0.00652945 0.0125479 0.0136271 0.0196413 
3652 2 0.0153211 -0.0095629 -0.00370144 0.018436 
3823 2 -0.0108208 0.0396916 -0.042957 0.0594796 
902 1 0.020062 0.0431549 -0.0144575 0.0497378 
3574 2 -0.0145275 0.0269646 -0.0346902 0.0462768 
770 1 -0.0026261 -0.0377511 -0.00504755 0.0381775 
154 1 0.00915778 0.000263721 -0.0260168 0.0275827 
116 1 0.0481003 -0.0411468 0.0104948 0.0641626 
710 1 -0.0464838 -0.0761408 -0.00472904 0.0893338 
1956 1 -0.00934474 0.0390971 -0.0665751 0.0777699 
1810 1 -0.0659038 -0.0196859 0.0576601 0.0897526 
2072 1 -0.0122487 -0.0192645 -0.0335348 0.0405677 
1649 1 0.00555889 -0.0094813 -0.0180136 0.0211018 
186 1 -0.0167335 -0.0366602 0.0590498 0.0714903 
1063 1 -0.0152268 0.0148172 -0.0791504 0.0819523 
432 1 -0.0455686 0.0415791 -0.0519142 0.0806251 
2495 1 -0.058485 -0.0602483 0.0453766 0.0954431 
3896 2 -0.00204603 -0.00860056 -0.0179012 0.0199652 
1071 1 -0.020774 -0.0237285 -0.0319353 0.0448828 
913 1 0.0388859 -0.055234 0.0251235 0.07207 
1068 1 0.0546329 0.0207072 0.00818341 0.0589959 
265 1 -0.0320764 0.0180695 -0.00247392 0.0368988 
1287 1 -0.00230377 0.0657809 -0.00837902 0.0663524 
3799 2 0.00914178 -0.0204576 -0.0414983 0.0471614 
554 1 0.0182475 -0.00864218 -0.0491286 0.0531157 
1414 1 -0.0180756 0.0296933 -0.0565765 0.0664027 
213 1 0.00601852 -0.0333438 -0.00387871 0.0341039 
341 1 -0.0341733 -0.0206488 -0.0233623 0.04626 
3682 2 -0.0343097 0.00369382 -0.037573 0.051015 
754 1 -0.0239076 0.0832702 -0.0107411 0.0872976 
112 1 -0.0325827 0.0241272 0.00426576 0.040767 
1041 1 -0.0231831 -0.0769395 0.00634535 0.0806065 
119 1 -0.00541782 -0.0269304 0.0603821 0.066337 
415 1 0.0210865 0.0275259 -0.0215513 0.0408262 
995 1 -0.00864125 0.0287874 0.0125154 0.032558 
4128 2 -0.0299794 -0.0297235 0.0685991 0.0805486 
8 1 0.0496603 0.0430399 -0.00470094 0.0658838 
94 1 -0.00532962 -0.0339303 0.0144909 0.0372781 
48 1 -0.00365903 0.00745209 -0.00256403 0.00868886 
1270 1 0.0318647 -0.0348711 0.00722198 0.0477861 
3866 2 0.0179711 0.0127333 -0.00774184 0.0233459 
2206 1 0.0175723 -0.0116523 -0.00614975 0.0219631 
3490 2 -0.0367439 -0.0231127 -0.0153814 0.0460532 
3072 1 0.00800275 -0.0238103 0.0550219 0.0604846 
3002 1 0.0582628 -0.0159548 0.0234155 0.0647873 
92 1 -0.00391551 0.0777623 0.042094 0.0885111 
335 1 -0.0318416 0.043797 -0.0361816 0.0651243 
4034 2 -0.0750821 -0.0642407 0.0228222 0.101415 
1186 1 0.0151737 0.00849953 0.00680948 0.0186776 
1114 1 0.0624387 0.0257995 0.0165945 0.0695672 
1821 1 -0.0152206 -0.0284946 -0.0307203 0.0445797 
1922 1 -0.00910816 -0.0546936 -0.00493357 0.0556659 
451 1 -0.0401131 -0.0316852 -0.00852292 0.0518233 
3960 2 0.00369647 -0.0162179 0.00611015 0.0177206 
100 1 -0.0197114 0.0295378 -0.0243682 0.0430678 
1180 1 -0.0139906 -0.0369003 -0.034989 0.0527409 
165 1 0.053266 0.00179352 -0.0134991 0.0549792 
388 1 -0.0434401 -0.0412157 -0.0228695 0.0640999 
3742 2 0.0543085 -0.0232415 0.0319545 0.0671615 
323 1 -0.0423035 0.0553812 -0.0644757 0.0949409 
288 1 -0.0259101 0.00536516 0.0146136 0.0302271 
3942 2 -0.0276682 0.0319681 0.0595883 0.0730633 
66 1 0.024297 0.0291657 0.0285492 0.0474978 
340 1 -0.00951424 -0.0459592 0.0132209 0.0487602 
138 1 -0.0205844 0.0272862 0.0116127 0.0360986 
879 1 0.00704338 0.00423165 -0.0327583 0.0337731 
3808 2 0.0273444 -0.0229721 0.00760824 0.0365146 
834 1 -0.0267656 0.00886832 0.0159307 0.0323857 
18 1 -0.0268347 -0.0346945 -0.0562612 0.0713381 
3679 2 0.0016921 -0.0150116 0.000122331 0.0151071 
52 1 0.0117759 0.0036321 -0.00891941 0.0152125 
407 1 -0.0518833 -0.00544278 -0.0471505 0.0703184 
360 1 0.0376831 -0.00443647 -0.0841628 0.0923205 
2885 1 -0.0406841 -0.0410022 -0.0248813 0.0628924 
3526 2 0.000183208 -0.082129 -0.0216425 0.0849329 
310 1 -0.0499257 -0.0091936 0.0127279 0.0523364 
326 1 0.0309598 -0.0157622 0.0270845 0.0440514 
227 1 -0.00763686 -0.00689258 -0.00276611 0.0106527 
2068 1 -0.032322 -0.053863 -0.0815453 0.102935 
456 1 0.00445051 -0.00118836 0.0163223 0.0169599 
279 1 -0.0241153 0.0147708 0.0376511 0.0470885 
305 1 -0.0664503 0.00622221 -0.0102867 0.0675291 
49 1 0.0120258 0.0250561 0.0224795 0.0357457 
3512 2 -0.00758488 -0.0541985 0.0350335 0.0649796 
11 1 -0.0178803 -0.0584991 -0.0068923 0.0615577 
189 1 -0.00411255 0.0377225 0.0458999 0.0595542 
2271 1 -0.0305378 -0.0209378 -0.0210586 0.0425959 
319 1 -0.0492432 -0.0231572 -0.0113516 0.0555879 
3566 2 -0.0187284 0.0288325 -0.0195882 0.0395697 
71 1 -0.030048 0.0122742 -0.00297031 0.0325939 
1560 1 -0.0187452 -0.0238205 0.0376872 0.0483645 
190 1 0.00945153 -0.0265788 0.0151792 0.0320339 
123 1 0.0351956 0.0151514 0.0302704 0.0488323 
27 1 -0.0276587 0.00181202 -0.0218898 0.0353193 
162 1 -0.00779537 -0.00216628 -0.0548152 0.0554091 
255 1 -0.0482344 0.013115 -0.0277289 0.0571616 
304 1 -0.0536761 0.00671096 -0.0256778 0.0598792 
321 1 -0.00121283 -0.0516689 0.0818256 0.0967811 
682 1 -0.0284011 0.0169344 0.000269161 0.0330676 
3469 2 0.0595782 0.0531499 -0.0521963 0.0953884 
3539 2 0.0291984 0.0416439 0.0293734 0.058733 
128 1 0.0455022 -0.021491 -0.0116038 0.0516426 
3562 2 0.0653411 0.0233087 0.023537 0.0732581 
560 1 -0.0509499 -0.0332271 0.0169105 0.063134 
212 1 0.0146995 0.0198805 0.0126417 0.0277691 
355 1 0.006606 0.0403664 0.0730057 0.0836834 
156 1 0.0605945 0.0196212 0.037162 0.0737408 
3620 2 -0.018842 -0.0166455 0.00925817 0.0267919 
1823 1 0.0807267 -0.070795 -0.048902 0.117984 
1805 1 0.00744686 0.0499347 0.0542531 0.0741102 
2599 1 0.00272952 0.0213104 -0.0154906 0.0264866 
327 1 -0.0136139 0.0140676 -0.00882213 0.0214724 
137 1 0.0388716 -0.0125814 0.0567446 0.0699231 
2334 1 -0.0072473 0.0286589 0.0129491 0.0322728 
3698 2 0.0200673 -0.0510179 0.0167105 0.0573129 
555 1 0.0159943 -0.023267 -0.0217779 0.0356573 
4178 2 0.0293243 -0.0108478 0.0178112 0.0359837 
290 1 -0.00359925 0.043261 -0.0196351 0.0476446 
284 1 -0.0303602 -0.0118362 -0.0408668 0.0522679 
3543 2 0.0289655 -0.000969811 0.0167043 0.0334511 
366 1 0.0168489 -0.0297675 0.000417122 0.0342077 
55 1 -0.0185556 0.0112557 -0.000606032 0.021711 
273 1 -0.0109671 -0.0320272 0.00362066 0.034046 
3468 2 0.0295131 0.0128891 0.00800321 0.0331844 
316 1 0.0385342 -0.0363377 0.0698399 0.0876523 
81 1 -0.0483633 0.0269303 0.0298482 0.0628901 
322 1 0.0212399 0.00235617 -0.016836 0.0272055 
239 1 -0.0221553 0.0152269 -0.0298051 0.040138 
734 1 -0.0445549 -0.0547196 -0.0216986 0.0738255 
384 1 0.0549079 -0.0193838 -0.0162867 0.0604637 
3476 2 -0.0140333 0.0501613 0.00626244 0.0524625 
311 1 0.0285594 -0.02839 -0.0376594 0.0551349 
3471 2 -0.0234096 0.0101226 -0.00635693 0.0262847 
1938 1 -0.0048405 -0.0297027 -0.0127399 0.0326801 
139 1 0.0670614 -0.0271431 -0.0139053 0.0736704 
727 1 0.0120983 -0.0142975 0.0326225 0.0376167 
1885 1 0.00501976 0.0340276 -0.050868 0.0614054 
2184 1 0.0305245 0.115897 -0.0731631 0.140416 
2494 1 -0.0687663 -0.0522357 -0.0597173 0.104993 
2091 1 -0.0307881 -0.0172952 -0.0242241 0.0428234 
281 1 0.0372508 0.0381872 0.0526243 0.0749347 
863 1 0.00367167 0.0697008 0.0115007 0.0707386 
176 1 -0.0582749 0.0373194 -0.0300769 0.0754541 
3710 2 -0.00293909 0.0390518 -0.0158876 0.0422623 
3572 2 0.00509102 -0.0412638 -0.00988486 0.0427356 
4197 2 -0.0460054 0.0128293 -0.000316798 0.0477618 
343 1 0.00432484 -0.0240568 -0.0615236 0.0662011 
282 1 -0.00130048 -0.0147121 0.00579106 0.0158642 
1038 1 -0.0105003 0.0135782 -0.00474968 0.0178096 
408 1 0.0907388 0.0728933 -0.0220568 0.118463 
412 1 0.0738411 -0.0331652 -0.00342256 0.0810194 
820 1 0.0457274 -0.00142572 0.00327162 0.0458665 
585 1 -0.0244619 -0.0270412 -0.0300724 0.0472648 
3609 2 0.0329515 -0.0192095 -0.00120722 0.038161 
719 1 -0.0262964 0.0380928 -0.0109271 0.0475601 
608 1 0.00498633 -0.0364632 -0.01185 0.0386633 
106 1 -0.00924076 0.0411218 0.0160886 0.0451136 
1047 1 -0.0673169 -0.0132324 -0.00075106 0.0686092 
3573 2 0.000569362 0.0121788 -0.0301561 0.0325275 
751 1 -0.0279505 -0.00883814 -0.00971365 0.030882 
259 1 0.0362426 -0.0469508 0.0137315 0.0608807 
245 1 -0.0472587 -0.000598615 -0.0461568 0.0660621 
613 1 -0.0231176 0.00365493 0.0882567 0.0913073 
4296 2 -0.0206437 0.0199851 0.016192 0.032981 
272 1 -0.0501131 -0.053822 -0.000681677 0.0735432 
4239 2 -0.00275223 -0.0617578 -0.0282732 0.0679777 
88 1 0.0320707 0.0574845 0.0330437 0.0736538 
4 1 0.0841741 -0.00385514 -0.0340268 0.0908734 
361 1 0.0316747 0.0595253 -0.0775912 0.102796 
358 1 -0.00920952 -0.0193561 0.00671543 0.0224627 
194 1 -0.00284551 0.0183262 -0.042783 0.0466297 
2373 1 -0.00491293 -0.0285649 -0.032688 0.0436875 
1982 1 -0.00595382 -0.0203773 -0.0360872 0.0418685 
3953 2 -0.01516 0.0116814 0.0149875 0.0243085 
414 1 0.00621334 0.00662058 -0.0186648 0.020756 
3186 1 0.036871 -0.0458103 0.02617 0.0643655 
177 1 0.0420904 -0.00879499 0.0595749 0.0734719 
1962 1 -0.0249696 0.0264617 0.0261646 0.0448139 
706 1 0.0301552 -0.00566824 -0.006804 0.0314286 
1544 1 -0.0190108 -0.016474 -0.00903953 0.0267304 
4160 2 -0.00932241 0.000740428 -0.0060334 0.0111291 
19 1 -0.0131939 -0.0445349 -0.0453525 0.0649175 
3624 2 0.0114812 -0.0185632 -0.0286871 0.0360466 
115 1 0.0786815 -0.0471399 -0.00473827 0.0918445 
1102 1 -0.0556452 0.0103995 -0.0153812 0.058661 
1492 1 0.0266413 0.0119681 0.0313388 0.0428383 
649 1 0.041832 0.0784073 -0.0375324 0.0964692 
113 1 0.00642179 0.0196347 -0.00230545 0.0207864 
1150 1 0.0320405 -0.0132201 0.0255096 0.0430361 
620 1 -0.0702276 0.0329798 0.0220298 0.0806529 
739 1 -0.0357676 -0.0103385 0.0192709 0.0419234 
2412 1 0.00213473 0.054274 0.00700601 0.0547659 
3746 2 0.0449253 0.0111757 -0.0783486 0.0910038 
1225 1 0.0243968 0.045151 0.0463867 0.0691776 
241 1 0.0365301 0.0429401 -0.0105935 0.0573631 
83 1 0.0237112 0.0377786 -0.0164806 0.0475506 
1006 1 0.00833501 0.003643 -0.00587738 0.0108299 
4046 2 -0.07162 -0.0091354 -0.0307799 0.0784875 
96 1 0.0311992 -0.0508026 -0.0106681 0.0605649 
411 1 0.0317174 0.0326666 0.0306964 0.0549124 
2454 1 -0.00979257 -0.00432603 -0.0264919 0.0285732 
404 1 -0.0215544 0.0239337 0.0420507 0.0529686 
226 1 0.0472853 -0.00994913 0.0521458 0.0710919 
534 1 0.0253382 -0.00633801 0.0581324 0.0637304 
3538 2 0.0189786 0.0249469 0.0121906 0.0336325 
761 1 0.0417876 0.0119588 0.0067207 0.0439816 
246 1 0.0619164 -0.052125 0.0290606 0.0859952 
2229 1 0.0246897 -0.030403 0.0233506 0.0455979 
146 1 -0.00372931 0.0347009 -0.0209803 0.0407214 
3608 2 0.0357526 -0.0284797 -0.0140842 0.04783 
503 1 -0.026174 -0.00409569 0.0302006 0.0401737 
505 1 0.0414117 -0.0117582 -0.0174738 0.0464599 
1430 1 -0.0456806 -0.0224642 0.00529005 0.0511795 
97 1 -0.0017695 0.0272781 -0.0207607 0.0343254 
1723 1 0.0211744 -0.020897 -0.0536346 0.0613328 
3561 2 0.00425413 0.0493826 -0.00325308 0.0496721 
20 1 -0.0305877 -0.0553028 -0.025839 0.0682764 
263 1 -0.0452377 0.0522261 0.0241674 0.0731989 
817 1 0.0477368 -0.0307152 -0.00362332 0.0568802 
1034 1 0.0115814 0.0113169 0.0113885 0.0197965 
353 1 0.0269534 -0.0115597 0.0283843 0.040814 
1260 1 0.0302747 0.0400968 -0.0151082 0.0524649 
998 1 0.0105332 0.0192147 -0.0273627 0.0350553 
1932 1 0.0424957 -0.0572116 0.00183024 0.0712909 
36 1 0.0363915 -0.0469494 0.0345495 0.0687187 
38 1 -0.0366716 -0.0252652 -0.0437164 0.062404 
3130 1 0.00700192 0.0286529 -0.0231985 0.0375258 
1973 1 0.0483613 -0.0474258 0.0798876 0.104738 
307 1 -0.0294457 -0.0362613 -0.0616895 0.0773791 
2714 1 0.069758 0.0281483 0.0114018 0.0760823 
28 1 -0.00125921 -0.011653 -0.0156146 0.0195241 
1937 1 -0.00379363 -0.00103506 -0.023932 0.0242529 
562 1 -0.0417297 -0.0528395 -0.00171347 0.0673522 
3011 1 -0.0516077 -0.0216445 0.0163634 0.058306 
410 1 0.0609731 -0.00965103 0.0166663 0.0639424 
693 1 0.0376911 0.0714472 0.00261258 0.0808217 
367 1 -0.0253689 0.00229782 -0.00873349 0.0269283 
318 1 0.0696671 0.0190285 -0.00310853 0.0722859 
735 1 0.0402177 -0.0319123 0.0246327 0.0569441 
600 1 -0.0277032 0.0404689 0.0410874 0.0639794 
3590 2 -0.0504807 0.0218704 -0.069676 0.088777 
3636 2 0.0297532 -0.0786906 0.0202427 0.0865288 
26 1 -0.0268523 0.0445262 0.0286073 0.0593465 
1199 1 0.0348846 -0.0119847 -0.0181106 0.0410921 
614 1 -0.00936206 -0.0283301 -0.00857386 0.0310444 
459 1 0.0468811 -0.0155418 -0.0284066 0.0569765 
3645 2 0.0386764 0.0551482 0.0197797 0.0702027 
574 1 0.0108974 0.0446097 -0.033645 0.0569277 
780 1 0.0504106 -0.00997259 -0.00893149 0.0521579 
161 1 0.00376907 0.0524299 -0.0352328 0.0632807 
309 1 0.0652066 0.0248619 0.0129812 0.0709825 
365 1 -0.0118955 -0.0410713 0.00302238 0.0428659 
191 1 -0.0273072 0.0512856 0.00119294 0.0581147 
1766 1 0.0290675 0.0726493 -0.0331572 0.0849838 
2775 1 -0.0245613 -0.0561902 -0.0265231 0.0668137 
1030 1 -0.00826673 -0.0128134 0.0417322 0.0444308 
1505 1 0.0348778 0.0655166 0.0552801 0.0925461 
3872 2 0.000637064 0.0289312 -0.00381259 0.0291883 
580 1 -0.0250632 -0.0375831 -0.025779 0.0520117 
2054 1 -0.0856748 -0.0337014 -0.036653 0.0990929 
2064 1 0.0255289 0.00205764 -0.0322266 0.0411644 
529 1 0.0101771 0.022526 -0.0408573 0.0477526 
402 1 0.00409096 0.0335176 -0.0256382 0.0423968 
124 1 0.0141816 -0.0349749 -0.000300837 0.0377419 
744 1 0.0227724 0.033205 -0.00612602 0.040727 
185 1 0.0568255 -0.0327223 0.0749215 0.0995646 
315 1 -0.00609597 -0.0337351 -0.0363881 0.0499932 
655 1 -0.0359409 0.0144517 0.0370451 0.0535998 
765 1 -0.0178441 0.0664666 0.0216321 0.0721399 
140 1 0.0177514 0.0341833 0.0116556 0.0402426 
59 1 -0.0235118 -0.0228704 0.0141432 0.0357196 
54 1 0.0123193 0.0152276 0.0603711 0.063469 
3506 2 0.0267137 0.0172327 -0.0139022 0.0346967 
666 1 -0.0371287 -0.0461099 0.0371505 0.0698915 
43 1 0.0133435 0.0930859 0.0292746 0.0984887 
334 1 0.0169308 0.0323558 0.00521609 0.0368885 
267 1 0.046282 0.0348557 0.0214493 0.061782 
99 1 0.0459352 -0.0130278 0.062863 0.0789399 
1189 1 -0.0484566 -0.0397384 -0.0648352 0.0901708 
201 1 0.0195841 -0.0280221 -0.0331109 0.0475931 
380 1 0.0308311 0.0481612 -0.0650006 0.0865744 
1777 1 0.0215496 -0.0121373 -0.0294586 0.0384644 
2597 1 0.110799 -0.00582784 -0.0475465 0.12071 
2484 1 0.0794887 -0.00887452 -0.0531974 0.0960582 
308 1 -0.0436344 -0.0250187 -0.0212978 0.0546213 
3918 2 -0.0178361 0.0296125 -0.011277 0.036362 
89 1 -0.0329323 -0.0147986 -0.0279519 0.0456601 
300 1 -0.00439559 0.0258696 -0.00726118 0.0272265 
3582 2 0.0122677 0.0709899 0.001414 0.072056 
712 1 -0.0433565 0.0199579 0.0435508 0.0646125 
3836 2 -0.00203831 0.0127672 -0.030946 0.0335382 
268 1 0.0257944 0.0116047 -0.018163 0.0336141 
788 1 0.0203292 -0.00277379 -0.0588518 0.0623258 
4091 2 -0.0144586 0.0525318 0.0436244 0.0697978 
371 1 0.0380833 -0.00151872 -0.00352869 0.0382766 
3505 2 0.00273272 -0.0155388 0.0598241 0.0618696 
266 1 -0.00647907 -0.0124886 -0.0100047 0.0172638 
3571 2 -0.0646894 0.0688313 -0.0034202 0.0945207 
637 1 -0.0154358 0.00435497 -0.00934848 0.0185641 
157 1 0.0577435 0.000953122 0.00201259 0.0577865 
257 1 0.00745611 0.0359069 0.0459219 0.0587684 
571 1 -0.0397454 -0.005452 -0.0410942 0.0574295 
665 1 -0.042895 0.0329898 0.0622673 0.0824956 
448 1 -0.0526476 -0.0101001 0.00847742 0.0542738 
827 1 0.0742241 0.0477271 -0.00699353 0.0885212 
3475 2 -0.017793 -0.0182501 0.0163526 0.0302831 
73 1 -0.00955653 0.0645429 -0.0140264 0.0667372 
373 1 0.0175995 -0.0414271 0.028584 0.0533197 
247 1 -0.00661203 -0.00425265 -0.00691619 0.0104708 
107 1 0.0248041 0.00575773 0.0283394 0.0380987 
675 1 0.00602199 0.0281933 -0.0650679 0.0711685 
434 1 -0.00527718 0.03471 0.0235175 0.0422576 
159 1 -0.00583358 0.000402604 -0.00713404 0.00922428 
32 1 0.00710035 0.0322653 -0.00464974 0.0333629 
3579 2 -0.000884413 -0.0544929 -0.00767839 0.0550383 
394 1 -0.0233365 -0.000771068 0.0197362 0.030573 
260 1 -0.0419652 -0.00221306 0.0104238 0.043297 
3972 2 -0.0198493 0.00763826 0.0703833 0.0735265 
1801 1 -0.0464039 -0.00394306 0.0378653 0.0600221 
2122 1 -0.00699476 0.0257348 0.0314135 0.041207 
1966 1 0.0248418 0.0109704 -0.0326515 0.0424686 
291 1 -0.000878361 -0.00690361 0.0179381 0.0192408 
2047 1 0.0361761 -0.00448422 0.0216005 0.0423721 
1899 1 -0.027858 0.104418 0.0145685 0.109048 
622 1 -0.048422 0.00354196 0.00881426 0.049345 
1993 1 -0.00983825 0.0146265 -0.00478628 0.0182657 
62 1 0.0364729 0.0335053 0.00531941 0.0498114 
2187 1 0.026843 0.00106645 -0.0585182 0.06439 
4318 2 0.022693 -0.0322974 -0.00510829 0.0398019 
44 1 -0.0321533 -0.044204 0.0237811 0.0596101 
824 1 -0.0295866 -0.00761707 0.00542373 0.0310291 
1282 1 -0.0312286 -0.00240724 0.0555622 0.0637822 
3626 2 0.0124926 0.0202699 -0.0059352 0.024539 
819 1 0.0296374 -0.00433968 0.0138487 0.033 
773 1 -0.0413082 -0.0379961 0.0101608 0.0570378 
270 1 0.0404004 -0.0499946 0.0401001 0.0757605 
14 1 -0.0389881 0.0396503 -0.0372823 0.0669491 
3540 2 0.0259157 -0.0420709 -0.00389424 0.0495657 
997 1 0.0516547 0.0153807 0.0178402 0.0567719 
4275 2 -0.00867662 -0.0459494 -0.0346321 0.0581895 
164 1 0.0225434 0.0339626 0.0845113 0.0938287 
234 1 -0.0465204 -0.0411465 0.0209474 0.0655436 
1125 1 -3.32329e-05 0.056281 -0.0364405 0.0670482 
3985 2 -0.0497796 -0.00685307 0.0517472 0.0721301 
328 1 0.009554 0.00309252 -0.0281909 0.0299261 
3474 2 0.00564067 0.0176876 -0.004593 0.0191249 
543 1 -0.0287294 -0.0294641 -0.000188199 0.0411527 
293 1 0.029541 -0.0189155 0.00476248 0.0353998 
3458 2 0.0304161 -0.0406324 0.0238087 0.0560623 
390 1 -0.0179598 -0.0401702 0.0298704 0.0531831 
3706 2 0.0851129 -0.0207219 -0.0467081 0.0992737 
2169 1 0.0363922 0.00955018 0.0179071 0.0416684 
1786 1 -0.0351306 0.0271982 -0.0429805 0.061816 
1478 1 0.0216868 -0.0179053 0.0554127 0.0621408 
87 1 -0.0206338 -0.0255534 -0.00203139 0.0329068 
4090 2 -0.00446767 -0.0411816 0.0454515 0.0614957 
142 1 -0.0176963 0.0145602 0.0436682 0.049316 
1650 1 -0.0438726 -0.0165267 -0.045049 0.0650181 
153 1 -0.00173466 0.0234018 0.0148506 0.0277704 
374 1 0.0203045 -0.0242285 0.0135883 0.0344084 
602 1 -0.0103067 -0.0125775 -0.000818066 0.0162816 
1277 1 -0.0355439 0.00220636 0.00818344 0.0365405 
76 1 -0.0463013 -0.0141579 0.0185468 0.0518483 
1370 1 0.0228455 -0.0307873 0.059904 0.0711214 
221 1 0.0188527 -0.0129148 -0.0498066 0.0547989 
604 1 0.000153666 0.0450063 0.04204 0.0615869 
1161 1 -0.0360572 0.00171288 0.0471249 0.0593618 
1718 1 -0.0628792 -0.000247246 -0.0334204 0.0712094 
178 1 0.0423521 -0.0608723 -0.00124846 0.0741667 
295 1 -0.032977 -0.0297198 0.00835326 0.0451722 
1472 1 -0.0374003 -0.0479254 0.0287863 0.0672628 
4159 2 -0.0111642 -0.0342219 -0.0225672 0.042486 
3467 2 0.057949 -0.00293853 0.0165993 0.0603511 
3531 2 0.042695 -0.00540893 0.0740556 0.0856525 
2720 1 -0.0884055 0.0282987 -0.0114082 0.0935227 
1851 1 0.0171196 0.0308588 0.00117263 0.0353089 
732 1 -0.0424328 -0.0474913 0.0030807 0.0637609 
4009 2 0.0384422 0.0499391 -0.0178056 0.0654886 
3878 2 0.00544606 0.00770859 -0.013702 0.0166381 
3185 1 -0.034359 -0.0181525 9.61888e-05 0.0388595 
110 1 -0.0549984 -0.0111589 0.0118496 0.0573564 
2963 1 -0.0106694 0.00998189 -0.00641827 0.0159583 
2608 1 -0.0193809 0.00499593 0.00850054 0.0217448 
3301 1 0.000255891 -0.0184784 -0.00388976 0.0188851 
3759 2 -0.0137985 0.0335008 -0.00952153 0.0374615 
4171 2 0.00787148 0.0132189 0.00216507 0.0155367 
2118 1 -0.0184801 -0.003508 -0.0592769 0.0621898 
1742 1 0.0463871 -0.0670506 0.0103965 0.0821927 
642 1 0.0303053 -0.0639977 0.0509999 0.0872646 
3366 1 -0.0474699 0.00940532 0.0380949 0.061588 
144 1 0.0761899 0.0387297 0.00704679 0.0857586 
681 1 0.032513 -0.0309249 -0.0325749 0.0554487 
1666 1 0.0624963 -0.0210919 -0.0299475 0.0724397 
183 1 -0.0549959 -0.0251634 -0.0108023 0.0614364 
694 1 -0.0662754 0.0146207 0.0512948 0.0850726 
444 1 -0.00883853 0.0548123 -0.0435049 0.070535 
869 1 -0.00305576 -0.0635474 0.0437764 0.0772269 
920 1 -0.00492019 -0.0418631 -0.024918 0.0489657 
53 1 0.0213393 0.00532257 0.0160577 0.0272313 
1450 1 -0.0942899 -0.0463131 0.00998203 0.105523 
1579 1 0.0738973 -0.0361658 0.0425499 0.0926244 
51 1 0.0378239 0.00954516 0.0308213 0.0497162 
4187 2 -0.0449249 -0.0230711 -0.115064 0.125659 
1694 1 0.0128102 -0.0527547 0.0171731 0.0569392 
1590 1 0.00495383 0.0332119 -0.0094514 0.034884 
2005 1 -0.0210753 0.00610941 0.0988551 0.101261 
736 1 -0.0153695 -0.0158635 -0.0522786 0.0567531 
363 1 0.0100869 -0.00230774 0.0282492 0.0300847 
230 1 0.00836231 0.00821391 0.112474 0.113083 
2538 1 -0.013715 0.0187557 -0.0477217 0.0530777 
357 1 -0.0647255 2.08237e-05 0.0167397 0.0668551 
3849 2 0.0624788 0.0025822 0.0329868 0.0706993 
4102 2 0.0563213 -0.0614836 0.0251209 0.0870826 
1032 1 0.0435179 -0.0179871 0.00173947 0.0471208 
78 1 -0.00432461 0.00324886 -0.00473062 0.00718583 
564 1 0.0412423 0.00269917 0.0724061 0.0833718 
797 1 0.0813467 -0.020471 -0.0286176 0.0886302 
1476 1 0.07228 -0.0222947 -0.0181657 0.0777911 
872 1 -0.0413431 -0.0293759 -0.0147993 0.0528319 
475 1 -0.0260254 9.58106e-05 0.00490494 0.0264837 
4119 2 0.0334223 -0.0302554 -0.0181595 0.0486025 
576 1 -0.0782851 0.0363535 0.0471238 0.0983402 
507 1 0.03389 3.17988e-05 0.0218329 0.0403139 
248 1 0.0634979 -0.0338263 -0.00732501 0.0723177 
3597 2 -0.0297075 0.0124356 -0.00664535 0.0328837 
539 1 -0.00304502 0.0220691 0.0638821 0.0676553 
63 1 0.0535178 0.00796804 0.005284 0.0543651 
57 1 -0.0802346 0.00496744 -0.0102185 0.0810351 
854 1 -0.00470924 0.0123491 0.00911187 0.0160532 
668 1 0.0845119 -0.0284387 -0.0768794 0.117735 
385 1 -0.0718601 -0.0695857 0.00520566 0.100166 
752 1 0.0261499 -0.0268817 -0.00694461 0.0381402 