ITEM: TIMESTEP
88
ITEM: NUMBER OF ATOMS
4320
ITEM: BOX BOUNDS pp pp pp
0.0000000000000000e+00 1.9309999999999999e+01
0.0000000000000000e+00 1.9309999999999999e+01
0.0000000000000000e+00 9.6549999999999994e+00
ITEM: ATOMS id type c_displacement[1] c_displacement[2] c_displacement[3] c_displacement[4] 
4012 2 0.017497 -0.102573 -0.0686287 0.124648 
2361 1 -0.059437 -0.0445737 -0.142631 0.16082 
79 1 0.0569891 -0.0507249 -0.0604579 0.0973444 
781 1 0.0483254 0.0535639 0.141458 0.158792 
461 1 0.0343723 0.0639503 0.0823738 0.109802 
3704 2 0.0392706 -0.0944569 0.0536439 0.115507 
629 1 -0.011205 0.0985424 0.0511865 0.111607 
1571 1 0.0360807 -0.0626349 -0.0568212 0.0919434 
58 1 0.0472459 0.177922 0.01128 0.184434 
2372 1 -0.0743872 -0.0332018 -0.0427216 0.0919834 
372 1 0.0105418 -0.0857095 -0.0275963 0.0906576 
3504 2 -0.0592234 -0.0623076 0.0494862 0.0991894 
4130 2 0.0653965 -0.0112919 -0.100123 0.12012 
1262 1 0.0328079 0.00403976 -0.0557759 0.0648354 
907 1 -0.110448 -0.0379753 -0.151125 0.190996 
3659 2 0.0242658 0.0765257 -0.0520993 0.0957045 
1298 1 0.0546642 0.0491952 -0.0974788 0.122108 
1716 1 0.0489589 0.0389148 -0.0498587 0.0799827 
1182 1 0.0202894 0.0503577 -0.0507839 0.0743408 
683 1 0.0341382 -0.0628361 0.0101667 0.0722299 
1958 1 -0.0683425 -0.00484716 -0.0246467 0.0728124 
1554 1 0.0353118 -0.0844024 -0.0689223 0.114547 
1037 1 -0.00701821 -0.0940987 -0.000331765 0.0943606 
749 1 -0.00533755 -0.158057 -0.0357469 0.162136 
3628 2 0.0300033 0.0137866 0.0312673 0.0454743 
946 1 -0.127204 -0.0617634 0.0251296 0.143621 
2232 1 -0.0992526 -0.187087 -0.13472 0.251002 
7 1 0.0237172 -0.0719982 0.0631689 0.098674 
501 1 0.0105309 -0.0348421 0.0131351 0.0386963 
179 1 -0.0490231 0.000468298 0.0752975 0.0898509 
714 1 -0.116043 0.0420943 0.0238212 0.12572 
4166 2 0.00240531 -0.0580378 0.128133 0.140685 
276 1 -0.0189805 -0.085647 0.058871 0.105648 
767 1 0.0344189 0.00397404 0.0496756 0.060565 
3890 2 -0.141648 -0.0497888 -0.0465709 0.1572 
6 1 0.0188781 0.175304 0.0578512 0.185566 
2086 1 0.0940803 0.0259444 0.0100046 0.0981035 
224 1 0.129572 -0.0836511 0.0141156 0.154873 
3660 2 0.0207074 -0.0392431 0.106776 0.115628 
596 1 -0.0624039 -0.0320606 -0.0373118 0.0794626 
1214 1 0.097683 -0.0374799 -0.0663021 0.123866 
3686 2 -0.0498811 -0.00388193 0.0480681 0.0693811 
427 1 -0.159276 0.0222217 0.0538299 0.169589 
350 1 0.0467133 0.0513292 -0.0780311 0.10443 
85 1 -0.0623792 0.0493181 0.0961536 0.124776 
598 1 0.048835 -0.15734 0.0447164 0.170705 
3554 2 0.103713 -0.00428838 -0.033599 0.109104 
29 1 -0.236639 0.0925422 -0.0388182 0.257038 
464 1 0.0351708 -0.0338128 -0.106566 0.117204 
3619 2 -0.0801296 -0.0128174 0.152421 0.172677 
12 1 -0.0715293 0.0282252 -0.078059 0.109573 
364 1 -0.149574 -0.0283199 -0.0498625 0.160189 
1849 1 -0.0989423 -0.0607492 -0.116946 0.164792 
3663 2 -0.219668 0.0620421 -0.0684619 0.238307 
3517 2 0.00434714 0.018271 0.155568 0.156698 
25 1 0.213007 0.0526638 -0.0681511 0.229761 
4163 2 -0.0260264 -0.0475881 0.00265344 0.054305 
399 1 0.0381111 0.0657208 -0.038733 0.0852756 
4265 2 -0.0447168 0.0493792 0.162493 0.175618 
527 1 -0.0250479 0.0867979 -0.0155162 0.0916625 
200 1 0.0382715 0.0540217 0.116997 0.13443 
1951 1 0.0929329 0.0802696 0.00138032 0.122807 
644 1 0.0336557 -0.0382897 0.0152434 0.0532087 
193 1 -0.005334 0.0241241 0.0478941 0.0538913 
550 1 0.0775543 -0.0299622 0.0257227 0.087029 
69 1 0.0498568 -0.0612922 0.004628 0.0791445 
842 1 0.0562037 0.0168426 -0.0256118 0.0640194 
578 1 0.05075 -0.0758994 -0.0225298 0.0940419 
172 1 -0.0157059 -0.0190217 0.0752258 0.079167 
381 1 -0.0279962 -0.025553 0.0522775 0.064573 
3524 2 0.0116578 0.0383777 0.075737 0.0857021 
688 1 -0.0207884 0.146598 0.0455962 0.154926 
3651 2 -0.0213693 0.0199637 0.0931707 0.0976523 
2367 1 0.0558123 0.0620768 -0.0877054 0.121082 
1244 1 -0.13513 0.00493917 3.98778e-05 0.13522 
796 1 0.031548 0.135997 -0.0548131 0.149983 
691 1 0.00374923 0.0203745 -0.110464 0.11239 
421 1 0.0535081 0.067679 -0.007727 0.0866214 
597 1 0.0520106 0.0132181 0.0581854 0.079154 
3617 2 0.140907 -0.0080133 -0.0430645 0.147558 
120 1 0.0434591 0.236578 0.113771 0.266086 
769 1 -0.0757852 -0.0740235 0.0247096 0.108782 
2142 1 0.0401002 0.0448426 -0.0157187 0.0621769 
3611 2 0.0740915 -0.0122388 0.176912 0.192191 
1915 1 0.0129458 0.121052 0.0806009 0.146005 
2140 1 0.0862001 -0.0481389 0.045789 0.108832 
3828 2 0.0412216 0.104903 0.0910985 0.144924 
3204 1 -0.0419213 0.0374012 0.0853084 0.102146 
175 1 0.10384 -0.0714801 -0.0575335 0.138572 
2011 1 0.220088 0.115456 0.0747365 0.259527 
75 1 -0.0826743 0.116238 -0.0529176 0.15214 
547 1 -0.00881615 -0.00294313 -0.155874 0.156151 
4316 2 -0.0972261 0.091088 -0.0794281 0.155109 
559 1 0.0211097 0.0642546 -0.0554301 0.0874458 
717 1 0.00918128 0.083557 -0.121108 0.147422 
242 1 -0.00850627 -0.0296286 0.163143 0.166029 
3510 2 -0.146114 -0.00241136 0.204671 0.251486 
130 1 0.0934623 0.0142747 0.0437555 0.10418 
143 1 0.0195794 0.0819951 -0.0146801 0.085569 
202 1 -0.131847 -0.12141 -0.00713457 0.179374 
182 1 -0.127996 0.0679988 0.0848583 0.167952 
84 1 0.023034 0.0228494 -0.0181123 0.037158 
3633 2 -0.0934616 -0.0180355 -0.0589994 0.111988 
35 1 -0.1604 0.0230853 0.146287 0.218314 
3612 2 -0.00198837 0.0249022 0.0346228 0.0426944 
40 1 0.0688489 0.0929849 0.0609619 0.130777 
4005 2 0.101908 -0.103763 0.100553 0.176813 
718 1 -0.102349 0.00674084 -0.0358459 0.108654 
134 1 0.0436755 0.0392179 0.0759599 0.0959974 
511 1 -0.146155 -0.0382988 0.0221194 0.1527 
757 1 -0.0343716 0.188047 0.00816837 0.191337 
3555 2 -0.0393829 0.104518 0.0874955 0.141882 
3481 2 0.0119683 -0.0503629 -0.0644472 0.0826626 
135 1 -0.0613407 -0.0285712 -0.0522964 0.0855214 
369 1 0.0760769 -0.0347331 -0.0117837 0.0844567 
2148 1 -0.0256289 -0.0779316 0.0573448 0.100093 
3462 2 0.0180734 -0.088649 -0.154596 0.179124 
1914 1 -0.0354276 -0.0572353 -0.092716 0.114574 
3661 2 0.0799939 -0.126154 -0.0292993 0.152224 
1871 1 0.00511465 0.0440923 -0.0142748 0.0466268 
320 1 -0.105703 -0.111077 -0.0600228 0.164663 
582 1 -0.0876245 -0.100285 0.00431512 0.133244 
766 1 0.000565232 0.0368489 -0.0740158 0.0826832 
3552 2 0.0808781 0.0275057 -0.0402253 0.0944241 
2290 1 0.0296943 0.094725 0.0154564 0.100466 
1794 1 -0.0800113 0.152308 0.0301881 0.174674 
753 1 -0.0187402 -0.0297872 0.0336073 0.0486613 
396 1 0.065793 -0.0148609 0.16696 0.18007 
496 1 0.0241541 -0.0732557 -0.0762393 0.108454 
480 1 -0.0320999 -0.0832118 0.115925 0.146264 
253 1 0.0982609 0.00204732 -0.0802367 0.126875 
4033 2 0.0286512 -0.0326444 -0.0531874 0.0686691 
347 1 -0.0460281 -0.0464709 -0.105351 0.124004 
586 1 -0.0765611 0.0208785 -0.0718562 0.107055 
3671 2 -0.0690349 0.0108722 -0.0439594 0.0825618 
37 1 0.112648 -0.178078 -0.0847777 0.227131 
782 1 0.0547534 -0.109479 -0.055583 0.134436 
481 1 0.112912 -0.0716432 -0.0439922 0.140774 
392 1 -0.0288938 -0.0244967 -0.0722265 0.0815574 
333 1 0.00751799 -0.0505217 -0.0382458 0.0638099 
342 1 0.00283919 -0.0612219 -0.0903435 0.10917 
1179 1 0.045853 -0.0964565 -0.0909935 0.140307 
517 1 0.0576049 -0.083212 -0.0321235 0.106181 
1824 1 0.0380083 -0.0194181 -0.00589554 0.0430865 
34 1 0.172146 -0.0472374 0.0585602 0.187869 
398 1 -0.00168706 -0.0167048 -0.052927 0.0555262 
170 1 -0.0388838 -0.0417932 -0.0161346 0.0593207 
235 1 0.0222513 -0.048609 0.0423486 0.0682009 
3852 2 -0.070638 -0.0151543 -0.0139884 0.0735871 
816 1 0.0449698 -0.066065 -0.138779 0.160145 
3931 2 -0.190526 -0.0827298 0.057154 0.215432 
274 1 -0.0104099 -0.0755562 -0.0765451 0.108057 
30 1 -0.00102423 -0.0771496 -0.0180688 0.0792439 
2066 1 0.0925164 -0.0260878 0.156051 0.183281 
1082 1 -0.0366899 -0.131633 0.177627 0.224109 
1372 1 0.0133381 -0.034488 0.0917456 0.098917 
1265 1 0.0240628 -0.0108236 -0.00980836 0.0281491 
601 1 -0.0354844 0.0510534 0.0194681 0.0651506 
540 1 -0.102294 -0.149154 -0.0165278 0.181615 
589 1 -0.0190638 0.0700039 0.172284 0.186938 
958 1 0.107509 -0.0136441 0.101056 0.148178 
504 1 -0.0601757 0.0833152 -0.0225582 0.105221 
1349 1 -0.18069 -0.0323561 0.00804271 0.18374 
9 1 0.0174927 -0.11954 -0.0353167 0.125869 
149 1 -0.0393256 0.00347887 0.01123 0.0410453 
163 1 -0.0218722 -0.26914 0.0961514 0.286636 
4247 2 0.0674618 -0.122268 -0.132434 0.192456 
1584 1 0.172266 0.0300363 -0.0643715 0.186337 
3570 2 -0.0312373 -0.12331 -0.087467 0.154375 
237 1 -0.0194164 0.058592 0.108378 0.124723 
490 1 0.0667849 -0.140922 0.0687378 0.170424 
50 1 0.0666656 0.023074 0.0510524 0.0870807 
152 1 0.10206 -0.0154291 -0.23728 0.258759 
3652 2 -0.0806555 -0.0722481 -0.0309293 0.112613 
3823 2 0.0775281 0.052889 -0.177441 0.200732 
902 1 -0.0365742 0.0369182 0.0510497 0.0728471 
3574 2 0.0175139 0.0169225 -0.000973233 0.0243732 
770 1 -0.0117802 -0.00588382 -0.0925158 0.0934482 
154 1 -0.056478 -0.0717501 -0.017673 0.0930063 
116 1 0.0853808 -0.039355 0.141349 0.16976 
710 1 -0.0690125 -0.150207 -0.0570812 0.17488 
1956 1 -0.0784299 -0.0364257 0.0312192 0.0919387 
1810 1 -0.116527 0.0137396 -0.00582976 0.117479 
2072 1 -0.0354217 -0.0161595 -0.0746023 0.0841507 
1649 1 -0.056549 -0.0236313 -0.117933 0.132907 
186 1 -0.122797 0.0632231 0.0453661 0.145377 
1063 1 -0.237355 0.197473 -0.151335 0.343854 
432 1 -0.138974 0.0629563 -0.0711678 0.168352 
2495 1 -0.0349375 -0.143702 -0.00701282 0.148054 
3896 2 -0.054724 0.00735935 -0.105427 0.119012 
460 1 0.0859669 -0.00850327 -0.0576465 0.103854 
913 1 0.0370595 0.0350932 -0.0133341 0.0527516 
1068 1 -0.109296 0.0535991 -0.0996451 0.157314 
265 1 -0.0847175 -0.0501436 -0.092983 0.135415 
1287 1 0.0168184 0.0304703 0.0272224 0.0441854 
3799 2 0.153777 -0.10694 -0.116691 0.220681 
554 1 0.162561 -0.0604722 0.0200646 0.174601 
1414 1 -0.00882793 0.0561895 -0.0514199 0.076676 
213 1 -0.000346042 0.0239796 0.0600493 0.0646611 
341 1 -0.103041 -0.0145438 0.034929 0.109768 
3682 2 0.0288727 0.103974 -0.0443925 0.116683 
754 1 -0.040004 0.0139049 0.0397681 0.0580962 
112 1 -0.0185422 0.0638275 -0.00184887 0.0664919 
1041 1 -0.00500167 0.00865938 -0.0467799 0.0478368 
119 1 0.0557704 0.0850202 -0.0618667 0.119022 
3998 2 0.0698124 -0.0593063 0.175076 0.197592 
995 1 -0.0465193 -0.00114377 -0.0250622 0.0528533 
4128 2 0.0582869 -0.0363698 0.245379 0.254815 
8 1 0.0177258 0.0623432 0.00174546 0.0648377 
94 1 0.0430309 0.0807989 -0.0264869 0.0952978 
48 1 0.0928625 -0.0380955 0.125081 0.160375 
437 1 0.0808961 -0.0350716 -0.0161823 0.089644 
3866 2 0.0561639 0.0111896 -0.0441364 0.0723022 
2206 1 0.0303673 0.0274292 -0.035817 0.0543819 
3490 2 -0.0160715 0.0160326 -0.128366 0.130358 
3072 1 -0.00710629 -0.121208 0.0538092 0.132805 
3002 1 0.14155 0.0459934 -0.0287174 0.15158 
92 1 0.0311562 0.0788022 0.0503712 0.0985787 
335 1 0.0498946 0.0334058 -0.0387778 0.0714782 
2192 1 0.036427 0.0411014 0.18526 0.19323 
1186 1 -0.0104856 -0.033215 -0.0193688 0.0398539 
1114 1 0.0755851 -0.0839727 0.0275163 0.116283 
1821 1 -0.124489 -0.0718451 -0.0335697 0.147602 
1922 1 0.0251819 -0.0821924 0.0512476 0.10008 
451 1 -0.105528 -0.0383301 -0.0136515 0.113101 
3960 2 -0.0268528 -0.0385217 0.0734503 0.0871776 
100 1 -0.0741149 -0.0727803 -0.0188152 0.105565 
1180 1 0.0534197 -0.0390423 -0.0991566 0.119206 
165 1 0.0667186 0.00712603 -0.0523485 0.085103 
388 1 -0.0474807 -0.0015711 -0.117307 0.126561 
3742 2 -0.0269745 -0.0587906 0.0248511 0.0692931 
323 1 -0.0920487 0.0734993 0.064592 0.13434 
288 1 -0.125009 0.0294583 -0.0468544 0.136712 
3942 2 -0.103673 0.129455 0.108087 0.197964 
66 1 0.0379276 0.0560772 0.108571 0.127948 
340 1 0.117645 0.0804713 -0.0416989 0.148509 
138 1 -0.026904 0.0155397 0.0788718 0.0847707 
879 1 -0.0766225 0.0103905 -0.0463192 0.0901357 
3808 2 0.0759878 0.191729 -0.0594126 0.214626 
834 1 0.121125 0.0401585 0.0016907 0.12762 
18 1 -0.0466761 -0.0694879 -0.120162 0.146445 
3679 2 0.141381 -0.0787498 -0.106183 0.193559 
52 1 0.000606858 -0.188509 0.032324 0.191261 
407 1 0.00519347 0.121684 -0.0886924 0.150666 
360 1 0.0570231 0.00634348 -0.0461665 0.0736425 
2885 1 -0.0718122 -0.0106712 0.0168137 0.0745223 
3526 2 -0.0759865 -0.240742 -0.0124394 0.252756 
310 1 -0.100102 -0.0380231 -0.0682213 0.126965 
326 1 0.0720778 -0.0432963 0.0789363 0.115329 
227 1 -0.0593824 -0.0824359 -0.0899968 0.135725 
2068 1 -0.0477037 0.0204995 -0.183349 0.190559 
456 1 0.118048 -0.0119168 0.0677624 0.136634 
279 1 0.0739165 0.0605337 0.169893 0.194914 
305 1 -0.0137293 0.00365742 0.0544097 0.0562342 
49 1 0.0166599 -0.0013897 -0.0077298 0.0184183 
3512 2 0.0548206 -0.196229 0.0102823 0.204002 
11 1 -0.0667989 -0.154357 -0.0287686 0.170634 
189 1 -0.157947 0.0690524 -0.0429924 0.177662 
2271 1 -0.0590877 -0.110676 -0.0964521 0.158252 
319 1 -0.18046 -0.0633524 0.0311445 0.193777 
3566 2 0.077697 0.00605015 -0.0494193 0.0922805 
71 1 0.0160249 0.00247688 0.0347043 0.0383056 
1560 1 -0.0806424 0.0611697 0.0645342 0.12004 
190 1 -0.0795731 -0.0147469 0.137741 0.159756 
123 1 0.061716 -0.0114774 0.0899456 0.109685 
27 1 -0.00306398 -0.0461476 0.0494429 0.0677022 
162 1 -0.00557532 0.0579617 -0.0281778 0.0646888 
255 1 -0.148776 -0.0375783 0.0171359 0.154402 
304 1 -0.0168474 0.0110683 -0.101174 0.103163 
321 1 0.0217323 -0.0296599 0.133429 0.138402 
682 1 -0.0939302 0.00207423 -0.0107005 0.0945605 
3469 2 0.0158598 -0.00293932 -0.0890539 0.0905028 
3539 2 -0.00113517 -0.0102275 0.0962744 0.0968228 
128 1 -0.00235802 -0.079142 -0.0996873 0.127305 
3562 2 0.111401 0.00749677 0.110878 0.157354 
560 1 -0.200506 -0.0716828 -0.0858396 0.229585 
212 1 0.0465494 0.0256873 -0.0664586 0.0851084 
355 1 0.0150308 0.0410258 0.0685905 0.0813246 
156 1 0.0184154 0.0503819 0.0568653 0.0781737 
3620 2 0.104891 -0.0470579 0.00487546 0.115066 
1823 1 0.173785 -0.193472 -0.0808812 0.272349 
1805 1 -0.14351 -0.00373023 0.124288 0.189885 
2599 1 -0.0809824 0.0641148 0.10342 0.146166 
327 1 0.135231 0.0789714 0.0669785 0.170324 
137 1 0.0731701 0.0351662 -0.0334606 0.0878074 
2334 1 0.0183794 -0.00125528 0.0129633 0.0225261 
3698 2 -0.00372037 -0.0231974 -0.060272 0.0646891 
555 1 -0.0254153 -0.0232972 -0.0184089 0.0390843 
4178 2 0.0015285 -0.0103652 -0.0125741 0.016367 
290 1 0.0342652 -0.0267869 -0.0869645 0.0972341 
284 1 0.010522 0.0657653 0.034704 0.0751009 
3543 2 -0.0585587 -0.113486 -0.0185 0.129036 
366 1 0.0213059 0.000285822 0.135754 0.137416 
55 1 0.0418316 0.0419384 0.0248042 0.0642181 
273 1 -0.0147009 0.0336439 -0.118709 0.124257 
3468 2 0.0846276 -0.00555723 0.171719 0.191521 
316 1 0.14682 0.0502301 0.159288 0.222378 
81 1 -0.042396 -0.040049 0.00445833 0.0584912 
322 1 0.0504056 -0.0241115 0.0549659 0.0783795 
239 1 0.0661569 -0.00865134 -0.0389171 0.0772407 
734 1 -0.0221418 -0.0900477 -0.0475504 0.104211 
384 1 -0.0198962 -0.0978232 -0.0989757 0.140575 
3476 2 0.0388695 0.0911624 0.0139018 0.100073 
311 1 -0.0133833 -0.113804 -0.0114272 0.115157 
3471 2 0.0402851 0.0257132 0.0675761 0.0827682 
1938 1 0.0653603 -0.024805 0.0079395 0.0703584 
139 1 0.134724 0.0689404 -0.0720302 0.167605 
727 1 0.0942844 -0.158564 -0.074254 0.198861 
1885 1 0.0290219 0.0739673 0.0315842 0.0855043 
2184 1 0.217539 0.0436609 -0.033696 0.224422 
2494 1 -0.154722 0.0344958 -0.0905493 0.18256 
2091 1 0.0166202 0.0090062 -0.0459731 0.0497078 
281 1 0.0268064 0.107568 0.158537 0.193452 
863 1 -0.0450596 0.0881064 -0.0249333 0.102053 
176 1 -0.0671324 0.0374074 -0.108646 0.133079 
3710 2 0.0184172 0.0489618 -0.0659021 0.08414 
3572 2 -0.0622449 -0.0916185 -0.10017 0.14934 
4197 2 0.0285048 0.0362609 -0.140621 0.147992 
343 1 -0.048347 -0.0177081 -0.0890454 0.10286 
282 1 -0.00470621 -4.84981e-06 -0.0813071 0.0814432 
1038 1 0.0316434 0.0314263 0.0886429 0.0992294 
408 1 0.148535 -0.052602 0.0369855 0.161856 
412 1 0.0986917 0.00250164 0.0561453 0.113572 
820 1 0.0925816 0.068174 0.143611 0.183965 
585 1 -0.0420535 -0.03823 -0.0878033 0.104592 
3609 2 0.0448801 -0.136083 0.0581913 0.154657 
719 1 0.00438081 -0.0331605 -0.00593956 0.0339719 
608 1 0.0898292 0.123679 0.118187 0.19322 
106 1 -0.0022405 0.0509864 0.00521836 0.0513017 
1047 1 -0.083563 -0.0666633 -0.0463518 0.116513 
3573 2 0.0783545 0.060959 -0.0624449 0.117281 
751 1 -0.00536177 -0.0621611 -0.0661654 0.090943 
259 1 0.0403308 0.00539306 -0.0400364 0.0570839 
245 1 -0.0324142 0.0119617 0.0149739 0.0376561 
613 1 -0.022513 -0.128334 0.0645705 0.145416 
4296 2 -0.024759 0.0496652 -0.000745744 0.0554995 
272 1 -0.105498 -0.144038 -0.0512408 0.185748 
4239 2 -0.194424 -0.0743678 -0.0833828 0.224241 
88 1 0.0447963 0.103153 0.0852921 0.141145 
4 1 0.0707954 -0.0163961 -0.0356002 0.080921 
361 1 0.148616 0.0577404 -0.136385 0.209812 
358 1 -0.0467164 0.0661638 0.106164 0.133533 
194 1 0.0204671 0.0121769 -0.0894065 0.0925241 
2373 1 0.0348666 -0.00844581 -0.0558563 0.0663848 
1982 1 0.068013 0.0125563 0.0701927 0.0985416 
3953 2 0.0386265 0.0764379 0.0817734 0.118413 
414 1 0.0253436 0.0537516 -0.174978 0.184794 
3186 1 0.0601849 -0.0156498 -0.0384567 0.0731167 
177 1 0.0804274 -0.00548305 -0.00966724 0.0811917 
1962 1 -0.0244225 0.139792 0.153898 0.209339 
706 1 0.00801451 0.0700475 0.00566434 0.0707317 
1544 1 0.0268661 -0.167972 0.0404239 0.174844 
4160 2 -0.0042914 0.0837201 0.00293068 0.0838812 
19 1 -0.0598994 0.107746 -0.0591168 0.136719 
3624 2 -0.0644389 0.0144465 -0.0711795 0.0970958 
115 1 0.0348269 0.0200016 -0.149585 0.154883 
1102 1 -0.0591228 -0.0184373 0.0846226 0.104864 
2048 1 0.12955 0.0352401 0.0386556 0.139711 
649 1 0.0235775 0.0706527 -0.00753448 0.074863 
113 1 -0.014901 -0.102489 0.0298056 0.10777 
1150 1 0.0177989 -0.0125218 0.00704227 0.0228733 
620 1 0.0333194 -0.103371 0.0362356 0.114493 
739 1 0.0422836 -0.0173032 -0.159043 0.165475 
2412 1 -0.0450591 0.000738964 0.011909 0.0466121 
3746 2 0.0957964 0.00875753 -0.205683 0.227066 
1225 1 -0.0155303 -0.0178309 0.17594 0.177522 
241 1 0.128357 -0.0575347 -0.00735984 0.140854 
83 1 0.0403701 -0.0511534 -0.00134295 0.0651783 
1006 1 0.0670117 0.0189689 -0.0230944 0.073374 
4046 2 -0.082239 -0.0693927 -0.039464 0.114612 
96 1 -0.0584806 -0.165818 0.0792818 0.192876 
411 1 0.147868 0.0590282 0.0333962 0.162679 
2454 1 -0.02118 -0.0244145 0.0617512 0.0696984 
404 1 0.0142438 0.0653075 0.0491742 0.0829823 
226 1 0.0454894 -0.0263426 0.0341518 0.0626863 
534 1 0.0535691 -0.0503269 0.129688 0.149069 
3538 2 -0.0944248 0.0603223 -0.0455264 0.120944 
761 1 0.0398325 -0.0405734 0.056471 0.0801361 
246 1 0.0452036 0.0221146 -0.0377602 0.0629147 
2229 1 -0.116713 -0.106422 -0.0645622 0.170634 
146 1 0.0312124 -0.161616 -0.0768178 0.181645 
3608 2 -0.0600796 -0.0182437 0.0435063 0.0763884 
503 1 0.0805545 -0.0393569 -0.0305956 0.0947316 
505 1 0.128526 -0.0962708 0.0228209 0.162197 
1430 1 -0.0250813 -0.0809361 -0.0880906 0.122228 
97 1 -0.166477 0.0701638 -0.0703675 0.193879 
1723 1 0.00278834 -0.0429708 -0.0882753 0.0982181 
3561 2 0.0179363 0.199763 -0.0566109 0.208402 
20 1 -0.0652938 0.00666683 0.0190477 0.0683414 
263 1 -0.0548571 0.161896 -0.0134743 0.171468 
817 1 0.0926938 -0.0912087 0.0302783 0.133521 
1034 1 -0.049886 0.0562341 0.00586391 0.0754008 
353 1 -0.00605499 -0.106709 0.168256 0.199333 
1260 1 0.034707 0.111159 -0.0762624 0.139201 
998 1 0.0321257 0.124317 -0.0771482 0.149795 
1932 1 0.109238 -0.0991924 -0.0620574 0.160073 
36 1 0.06673 -0.189252 -0.10313 0.225622 
38 1 0.030173 0.0673683 -0.054763 0.0919123 
3130 1 0.0134071 0.00778131 -0.0398625 0.0427705 
1973 1 0.109652 0.115063 0.123014 0.200987 
307 1 0.111026 -0.0301041 0.0543166 0.127214 
2714 1 0.0784895 0.0220004 -0.0192991 0.083768 
28 1 0.0463495 0.0810598 -0.0124964 0.0942079 
1937 1 0.0119987 0.0859998 -0.0703676 0.111766 
562 1 -0.0648079 -0.113134 -0.0425084 0.137136 
3011 1 0.0118486 0.0250303 -0.0105424 0.0296318 
410 1 0.0640179 -0.155745 0.049934 0.175637 
693 1 0.111183 0.0624862 0.179358 0.22008 
367 1 0.00514874 0.0117907 -0.00901316 0.0157089 
318 1 0.0532131 0.0358129 -0.167307 0.179181 
735 1 0.16249 0.0187113 0.0339032 0.167041 
600 1 0.0233411 -0.00412049 0.0469399 0.0525846 
3590 2 0.0783178 0.123862 0.0858732 0.169852 
3636 2 0.0500854 -0.0646187 -0.0069457 0.082051 
26 1 -0.137891 0.0118167 0.09846 0.169847 
1199 1 0.0529934 0.107775 -0.0595373 0.134047 
614 1 0.00717916 0.0806458 -0.110439 0.136938 
459 1 -0.113815 -0.0357965 -0.0431402 0.126871 
3645 2 0.0612544 0.118675 0.0522657 0.143414 
574 1 0.0727359 -0.0847746 0.13994 0.179054 
780 1 0.143277 0.035222 0.0137048 0.148178 
161 1 -0.0999661 -0.0448554 0.179345 0.210166 
309 1 0.100344 0.0691493 -0.0238011 0.124165 
365 1 0.0835418 -0.121241 0.0222905 0.148914 
191 1 -0.0782065 0.0870337 -0.0202301 0.118745 
1766 1 -0.069545 -0.0579886 0.00217977 0.0905756 
2775 1 0.112336 -0.0786382 -0.00831618 0.137377 
1030 1 0.0893594 -0.165084 0.0220971 0.189014 
1505 1 0.170006 0.170089 0.147228 0.281972 
3872 2 -0.0550937 0.0388188 -0.0350941 0.0759856 
580 1 -0.0182369 -0.0349065 0.0222295 0.0452239 
2054 1 -0.00482076 -0.100067 -0.00857496 0.10055 
2064 1 0.0467383 0.0236107 0.0258215 0.0583839 
529 1 0.0172797 0.0177907 -0.0557866 0.0610511 
402 1 -0.0392998 0.0768507 -0.00493853 0.0864575 
124 1 -0.119332 -0.0507757 0.0282366 0.132724 
744 1 0.110279 -0.0292576 0.0687354 0.133199 
185 1 0.0556404 -0.0506242 0.0939081 0.120322 
315 1 0.0535344 -0.02583 -0.00756194 0.0599192 
655 1 0.00435638 -0.101317 0.184014 0.210108 
765 1 0.0408207 -0.00547327 0.0439727 0.0602486 
140 1 -0.0287753 0.0298112 -0.167481 0.17253 
59 1 0.0578636 -0.0533181 0.0906791 0.120057 
54 1 0.0475828 0.0856872 0.0403766 0.106003 
3506 2 -0.0290062 0.114898 -0.127548 0.174101 
666 1 0.0519245 -0.232702 0.0969224 0.257372 
43 1 0.0844341 0.0560642 0.129976 0.164821 
334 1 -0.113228 -0.0760268 0.0953119 0.166388 
267 1 0.116181 0.0760649 -0.173405 0.222156 
99 1 0.0914101 0.117055 0.087779 0.172519 
1189 1 -0.12966 0.00911614 -0.184005 0.225283 
201 1 -0.0420324 -0.00533132 -0.0402373 0.058431 
380 1 -0.00822706 0.0865484 -0.109217 0.139594 
1777 1 -0.0213855 -0.0152217 -0.0630112 0.0682601 
2597 1 0.182949 0.022873 0.0738502 0.198614 
2484 1 0.167455 -0.0333305 0.0425849 0.17597 
308 1 0.0342022 -0.0114846 -0.0896387 0.096627 
3918 2 -0.00454459 0.176899 0.101693 0.204096 
89 1 -0.111208 0.0211431 0.0219205 0.115303 
300 1 -0.0464124 -0.022033 0.0300933 0.0595413 
3582 2 0.0805204 -0.0351021 -0.076683 0.116602 
712 1 -0.00102144 0.124467 -0.102532 0.161263 
3836 2 -0.0363883 0.104878 -0.0553824 0.124059 
268 1 -0.0343814 0.0100084 0.0817806 0.0892767 
788 1 -0.00579972 0.110342 -0.0428842 0.118524 
4091 2 -0.0399396 0.117859 -0.0154264 0.125395 
371 1 0.00285821 -0.0114539 0.112575 0.113192 
3505 2 0.124 0.00161146 -0.00946744 0.124371 
266 1 0.126217 -0.0312283 -0.104303 0.166688 
3571 2 -0.00354086 -0.0728508 0.0780565 0.10683 
637 1 -0.042883 -0.0144064 -0.0798042 0.0917344 
157 1 -0.073114 -0.0487671 0.048317 0.100292 
257 1 -0.0399276 0.00856098 0.0507047 0.0651035 
571 1 0.0118693 0.0320733 0.0574773 0.0668821 
665 1 -0.139571 -0.0581499 0.120917 0.193604 
448 1 -0.194822 -0.148406 -0.00153586 0.244913 
827 1 0.0628176 0.060593 0.0501077 0.10064 
3475 2 0.0858313 0.00854607 0.0433907 0.0965546 
73 1 -0.0420768 0.0658144 -0.0288868 0.0832853 
373 1 0.0990232 0.011537 0.0626699 0.117755 
247 1 0.032496 0.00973453 -0.0819593 0.0887022 
107 1 0.0611881 0.0760208 -0.0819083 0.127405 
675 1 -0.0825927 0.0201574 -0.121807 0.148542 
434 1 0.107584 0.0703462 -0.0642092 0.143686 
159 1 -0.0469679 0.0887746 -0.0696085 0.122198 
32 1 0.0515938 0.136164 -0.033358 0.149383 
3579 2 0.093415 0.0030515 -0.166446 0.190893 
394 1 -0.05246 0.007075 0.0778837 0.0941699 
260 1 0.0325091 0.022937 0.055356 0.0681706 
3972 2 -0.066411 0.0589882 0.0748951 0.116187 
1801 1 -0.0412724 0.0509865 0.00631523 0.0659008 
2122 1 0.0388221 0.0524418 0.198376 0.208831 
1966 1 0.0519211 -0.0476666 -0.0714495 0.100364 
291 1 -0.0136188 -0.00204807 0.0702435 0.0715809 
2047 1 0.0864428 0.0435572 -0.0166133 0.098212 
1899 1 0.0544387 0.0672175 -0.00862037 0.0869257 
622 1 0.0102273 0.191323 -0.026435 0.193411 
1993 1 0.012434 -0.0104146 0.0346576 0.0382651 
62 1 0.00191373 0.0149927 0.0585622 0.0604812 
2187 1 -0.0690887 0.066367 -0.0998507 0.138376 
4318 2 0.0962136 0.0284213 0.0541293 0.113995 
44 1 0.038433 0.0627782 0.0915824 0.117497 
824 1 0.0269774 -0.0245128 0.0883407 0.0955654 
1282 1 0.0448437 0.0230733 0.0834552 0.0975095 
3626 2 0.164125 0.100997 -0.0607168 0.202049 
819 1 0.0844732 0.126567 0.0447568 0.158613 
773 1 -0.11889 -0.16287 0.0658923 0.21214 
270 1 -0.0637807 -0.0537678 -0.0614715 0.103623 
14 1 -0.149193 -0.0605444 0.0148344 0.161692 
3540 2 0.0577582 -0.122481 0.0420436 0.141793 
997 1 0.0517566 0.0428628 -0.114275 0.13257 
4275 2 -0.0380468 -0.0890762 -0.206488 0.228077 
164 1 0.00437579 0.0162814 0.102707 0.104081 
234 1 0.0140948 -0.00711135 0.0445975 0.0473093 
1125 1 -0.0107761 -0.0670489 -0.075674 0.101677 
3985 2 0.034594 0.0377775 0.0469551 0.0694886 
328 1 0.0115619 0.00291118 -0.0254881 0.0281389 
3474 2 0.0680624 0.00587876 -0.0715427 0.0989212 
543 1 -0.027171 -0.0241848 0.0151165 0.0393913 
293 1 0.0853287 -0.0842819 0.130333 0.177119 
3458 2 0.129493 -0.0110236 0.108397 0.169233 
390 1 -0.0197728 0.00366692 -0.13979 0.141229 
3706 2 0.0681473 -0.230494 -0.194223 0.309021 
2169 1 0.0945956 0.0582166 -0.10034 0.149685 
1786 1 0.0831432 -0.0216273 0.014287 0.0870899 
1478 1 -0.0426601 0.045699 0.067262 0.0918284 
87 1 0.0211007 0.00037285 -0.0367979 0.0424201 
4090 2 -0.0988755 -0.0364711 0.0268793 0.108761 
142 1 0.0233112 0.0224361 0.00347656 0.0325404 
1650 1 -0.0813121 -0.114261 -0.0179069 0.141378 
153 1 0.10094 -0.0554668 0.0150272 0.116152 
374 1 0.0129667 -0.0865696 -0.11236 0.142433 
602 1 0.0203293 -0.0237589 -0.142121 0.14552 
1277 1 -0.0464259 0.0264917 0.0232073 0.0582731 
76 1 0.0393787 0.0210047 0.194396 0.199454 
1370 1 0.0450386 -0.0356281 0.060982 0.0837654 
221 1 -0.0429329 0.0451689 -0.0313815 0.0697729 
604 1 -0.108156 0.0144209 0.0663264 0.127691 
1161 1 0.00202958 -0.0688489 0.0896903 0.113087 
1718 1 -0.0330151 0.0335533 -0.0939924 0.105121 
178 1 -0.0999276 -0.28937 -0.022524 0.306965 
295 1 -0.178881 -0.0996092 -0.0112689 0.205055 
1472 1 -0.088791 -0.0141106 -0.0531937 0.104463 
4159 2 -0.000250796 -0.0452757 -0.0166319 0.0482346 
3467 2 0.0644052 0.0238475 -0.0884524 0.111985 
3531 2 -0.101103 -0.0811476 0.140477 0.191156 
2720 1 0.00100671 0.044486 -0.0790587 0.090721 
1851 1 -0.0183763 0.00195836 -0.00384686 0.0188765 
732 1 0.0369383 -0.0783539 0.0216887 0.0892982 
446 1 -0.310345 0.0959558 0.100727 0.340099 
3878 2 0.0678682 0.115161 -0.0414983 0.139965 
3185 1 -0.154954 0.00304122 -0.0178127 0.156004 
110 1 -0.119619 0.0106212 -0.00117676 0.120095 
2963 1 -0.0204888 0.0661319 -0.0202833 0.0721431 
2608 1 0.00197161 -0.0129935 0.0320422 0.0346327 
3301 1 0.0303143 0.0305336 0.144768 0.151027 
3759 2 -0.0458638 -0.0462502 -0.0357145 0.0742839 
4171 2 -0.117484 0.0264586 0.0941671 0.152872 
2118 1 -0.0223566 0.0111709 -0.0815665 0.0853094 
1742 1 0.00715519 0.00755786 0.0399308 0.0412649 
642 1 0.0555188 -0.242501 -0.0129168 0.24911 
3366 1 -0.0604365 0.0095519 0.0598138 0.0855657 
144 1 0.0947848 0.0870642 -0.0342418 0.13318 
681 1 0.0040523 0.00488169 -0.0674471 0.0677449 
1666 1 0.0122293 -0.0513141 -0.0583867 0.0786873 
183 1 -0.0732655 -0.11577 -0.0449454 0.14419 
694 1 -0.107926 0.0276239 0.0684885 0.130774 
444 1 -0.0635701 0.0279273 -0.129197 0.146673 
869 1 -0.0366104 -0.139083 0.136194 0.198074 
920 1 -0.0824792 -0.156959 0.0857434 0.196954 
53 1 0.104381 0.00237647 0.0467622 0.114401 
1450 1 -0.299708 -0.00454436 -0.0917675 0.313475 
1579 1 0.00130527 -0.0661301 0.0390585 0.0768145 
51 1 0.0912235 -0.0590215 -0.0392875 0.115537 
4187 2 -0.0634913 -0.0793021 -0.140259 0.173183 
1694 1 0.0208439 -0.0887292 0.253799 0.269669 
1590 1 0.0512574 0.00984433 -0.051489 0.0733167 
2005 1 0.0980154 -0.14144 0.125624 0.213058 
736 1 -0.144925 0.0299787 -0.0328225 0.15159 
363 1 0.149189 0.0125383 -0.000306522 0.149715 
230 1 -0.03143 -0.0108501 0.136046 0.14005 
2538 1 0.0987784 -0.112041 -0.0342426 0.153242 
357 1 -0.0488838 0.0124006 -0.0641264 0.0815818 
3849 2 0.191866 -0.0672767 -0.16703 0.263131 
4102 2 0.0254047 -0.136435 0.063593 0.152657 
1032 1 0.0814779 0.0617871 0.077712 0.128435 
78 1 0.00626678 0.0498166 -0.0114078 0.0514889 
564 1 0.299562 -0.0810966 0.0938067 0.324213 
797 1 0.14861 -0.0633699 0.0144046 0.162198 
1476 1 0.26105 0.0740407 0.000212351 0.271347 
872 1 -0.0575708 0.0236118 -0.0188114 0.065006 
475 1 0.0519014 -0.0050009 -0.0110385 0.0532974 
4119 2 0.287204 -0.139235 -0.0974734 0.333727 
576 1 -0.0961107 0.0856708 0.0869656 0.15537 
507 1 0.0418237 -0.170099 0.0391176 0.17948 
248 1 0.0387231 -0.0566091 -0.0404467 0.0796241 
3597 2 -0.0621377 0.043905 0.0681796 0.102163 
539 1 -0.0163911 -0.0469971 0.0240917 0.0552974 
63 1 0.0651819 -0.0324942 0.134348 0.15282 
57 1 -0.0346079 -0.111248 0.027514 0.119712 
854 1 -0.079629 -0.0138906 0.0221034 0.0837991 
668 1 0.081831 -0.135398 -0.0690054 0.1726 
385 1 -0.0895047 -0.283564 0.13759 0.327645 
752 1 -0.00747211 0.0545017 -0.0355368 0.0654915 
3650 2 0.0135502 0.161111 -0.106013 0.193337 
3736 2 -0.0875727 -0.199887 0.0733232 0.230218 
254 1 -0.164182 -0.130625 0.002836 0.209825 
3637 2 -0.0254178 -0.0665472 -0.00670605 0.0715511 
731 1 -0.0426752 -0.104411 0.0294017 0.116564 
2304 1 0.0825197 -0.16839 0.0278118 0.189574 
610 1 -0.21911 0.0306514 -0.105835 0.245255 
292 1 -0.14065 0.0279391 -0.0285667 0.146216 
313 1 -0.0839532 -0.00155394 0.0082266 0.0843696 
2133 1 -0.0280236 -0.0780267 -0.0503777 0.0970123 
646 1 -0.0972329 -0.0271938 -0.0971514 0.140115 
271 1 0.0346613 0.126294 0.0416945 0.137441 
584 1 -0.0458762 0.127185 -0.0502302 0.144235 
3649 2 -0.0847338 -0.0250063 0.0631869 0.108617 
1148 1 -0.0368421 0.131095 0.137521 0.193534 
779 1 -0.130865 -0.0850496 0.0650132 0.169073 
621 1 -0.13301 0.0727846 0.00359251 0.151664 
16 1 -0.0338668 -0.0474468 0.102012 0.117493 
3635 2 -0.0889036 -0.24752 0.0754811 0.273619 
790 1 0.0984298 0.0183884 0.130608 0.164575 
17 1 -0.0272569 -0.0513598 0.129538 0.141989 
435 1 -0.0693623 0.147441 0.105081 0.193886 