ITEM: TIMESTEP
82
ITEM: NUMBER OF ATOMS
4320
ITEM: BOX BOUNDS pp pp pp
0.0000000000000000e+00 1.9309999999999999e+01
0.0000000000000000e+00 1.9309999999999999e+01
0.0000000000000000e+00 9.6549999999999994e+00
ITEM: ATOMS id type c_displacement[1] c_displacement[2] c_displacement[3] c_displacement[4] 
4012 2 0.0261905 -0.0843731 -0.066349 0.110485 
2361 1 -0.0542392 -0.0625354 -0.134341 0.157798 
79 1 0.0467535 -0.0569301 -0.046335 0.0870279 
781 1 0.051405 0.0377319 0.150868 0.16379 
461 1 0.0260448 0.0710533 0.0662182 0.100557 
3704 2 0.0284116 -0.0984046 0.0404267 0.110114 
629 1 -0.0194495 0.10392 0.0461068 0.115341 
1571 1 0.0323946 -0.0557059 -0.0503534 0.0817803 
58 1 0.0538182 0.167021 0.0266928 0.177496 
2372 1 -0.0708734 -0.0334266 -0.0337523 0.0853205 
372 1 0.0235525 -0.0914738 -0.0188497 0.0963197 
3504 2 -0.0567528 -0.073073 0.0497784 0.105064 
4130 2 0.0707427 -0.0145081 -0.105561 0.127899 
1262 1 0.0391518 0.0210951 -0.0532887 0.0694085 
907 1 -0.114755 -0.0448668 -0.145489 0.190654 
3659 2 0.0101052 0.0897152 -0.0661575 0.111927 
1298 1 0.0415352 0.0609718 -0.103043 0.126731 
1716 1 0.0560852 0.0398684 -0.060244 0.0914569 
1182 1 0.0288828 0.0447729 -0.0520628 0.074494 
683 1 0.0205666 -0.0627851 0.0159134 0.0679573 
1958 1 -0.0574664 -0.0178401 -0.0103553 0.0610565 
1554 1 0.0414625 -0.0890483 -0.0732705 0.122545 
1037 1 0.000958093 -0.100956 0.00473836 0.101071 
749 1 -0.0309173 -0.146183 -0.0160687 0.150278 
3628 2 0.033323 0.0332235 0.0121481 0.0485983 
946 1 -0.117299 -0.0544245 0.0118973 0.129856 
2232 1 -0.0876835 -0.178916 -0.119988 0.232587 
7 1 0.0200691 -0.0686153 0.0565782 0.0911697 
501 1 0.00366075 -0.0236965 -0.00620031 0.0247663 
179 1 -0.0475994 -0.00652414 0.0579592 0.0752831 
714 1 -0.119844 0.0287565 0.0428863 0.130494 
4166 2 -0.00360952 -0.0725484 0.128544 0.147648 
276 1 -0.0265669 -0.081634 0.0718851 0.11197 
767 1 0.018476 -0.00715334 0.0375699 0.0424738 
3890 2 -0.157909 -0.0467221 -0.0539338 0.173284 
6 1 0.0213777 0.17869 0.034747 0.183287 
2086 1 0.0789206 0.0251727 0.0159376 0.0843572 
224 1 0.136261 -0.0763144 0.00999115 0.156496 
3660 2 0.00991296 -0.0369829 0.100736 0.107767 
596 1 -0.0708884 -0.0229316 -0.0295588 0.0801545 
1214 1 0.0880928 -0.0438183 -0.0774873 0.125238 
3686 2 -0.0377591 -0.00184841 0.0493007 0.0621267 
427 1 -0.154178 0.0382919 0.0606543 0.170047 
350 1 0.038958 0.0588732 -0.0809911 0.10744 
85 1 -0.0540698 0.0554264 0.0965465 0.123761 
598 1 0.0465581 -0.141999 0.0581651 0.160358 
3554 2 0.0958486 -0.0142834 -0.03798 0.104084 
29 1 -0.224615 0.0821871 -0.0431975 0.243049 
464 1 0.044899 -0.0284111 -0.125732 0.136498 
3619 2 -0.0823305 0.00527721 0.143697 0.165695 
12 1 -0.0664973 0.0149809 -0.0826217 0.107111 
364 1 -0.150213 -0.0295847 -0.0635816 0.165776 
1849 1 -0.099898 -0.0705729 -0.110112 0.164575 
3663 2 -0.211984 0.0624142 -0.0471197 0.225949 
3517 2 0.00666452 0.0147474 0.149625 0.150497 
25 1 0.21969 0.0463604 -0.071229 0.235556 
4163 2 -0.0126722 -0.0448166 -0.00655928 0.0470334 
399 1 0.049807 0.0566968 -0.0352705 0.0833022 
4265 2 -0.0468067 0.0590671 0.142758 0.16143 
527 1 -0.0213453 0.0948903 -0.0280182 0.101217 
200 1 0.0420794 0.0495116 0.123091 0.139189 
1951 1 0.108564 0.0851818 0.00374754 0.138044 
644 1 0.0314173 -0.0364397 0.02846 0.0559005 
193 1 0.013867 0.0413697 0.0580235 0.0725981 
550 1 0.0668081 -0.0222866 0.0117623 0.0714029 
69 1 0.036466 -0.0600558 -0.00235013 0.0702993 
842 1 0.0360155 0.0256557 -0.0275611 0.0521052 
578 1 0.0424173 -0.0677904 -0.0118797 0.0808449 
172 1 -0.0272855 -0.0197684 0.0613388 0.0699838 
381 1 -0.0313 -0.0240634 0.0436599 0.0588636 
3524 2 0.020127 0.0101027 0.0767912 0.0800253 
688 1 -0.0208648 0.134295 0.0325163 0.139742 
3651 2 -0.0366538 0.0280541 0.0904724 0.101567 
2367 1 0.0469105 0.0406269 -0.0807052 0.101806 
1244 1 -0.130993 -0.00790068 -0.000962274 0.131234 
796 1 0.0196996 0.132062 -0.0519651 0.143279 
691 1 0.0165563 0.0115238 -0.0775458 0.0801266 
421 1 0.068572 0.0650937 0.000349788 0.0945486 
597 1 0.0414012 0.0229833 0.0489422 0.0681002 
3617 2 0.12788 -0.0243207 -0.0331258 0.134321 
120 1 0.0543814 0.235187 0.11854 0.268928 
769 1 -0.0820942 -0.0651602 0.0265881 0.108131 
2142 1 0.0352973 0.0427901 -0.0172083 0.0580777 
3611 2 0.0938196 -0.00778822 0.180406 0.203492 
1915 1 0.0079968 0.114789 0.0800061 0.140148 
2140 1 0.0735709 -0.04484 0.0586243 0.104212 
3828 2 0.0596555 0.0944702 0.0822961 0.138766 
3204 1 -0.0367301 0.0359685 0.0796356 0.0947874 
175 1 0.104026 -0.0608562 -0.0588705 0.134129 
2011 1 0.210067 0.118439 0.0609612 0.248741 
75 1 -0.0687642 0.124922 -0.0529601 0.152115 
547 1 9.40698e-05 -0.0087754 -0.151003 0.151258 
4316 2 -0.0911907 0.0874755 -0.0919442 0.156274 
559 1 0.0167251 0.0446957 -0.0532555 0.0715093 
717 1 0.00905464 0.0765281 -0.106342 0.131328 
242 1 -0.0130694 -0.0346115 0.14588 0.150499 
3510 2 -0.139301 -0.000365265 0.191377 0.236707 
130 1 0.100633 0.0131511 0.0632844 0.119603 
143 1 0.0293441 0.0839465 -0.0250422 0.0923861 
202 1 -0.135781 -0.121634 -0.0257282 0.184101 
182 1 -0.137524 0.0710169 0.0720668 0.170734 
84 1 0.0271962 0.019912 -0.00693925 0.0344133 
3633 2 -0.0816023 -0.0141157 -0.0467817 0.0951143 
35 1 -0.166473 0.0296355 0.14256 0.221167 
3612 2 -0.00329073 0.0301107 0.0349046 0.0462149 
40 1 0.0885551 0.101511 0.0753568 0.154354 
4005 2 0.0937418 -0.0955125 0.0895244 0.161012 
718 1 -0.106498 0.00019727 -0.0379935 0.113073 
134 1 0.0332977 0.0398986 0.0826414 0.0976229 
511 1 -0.11898 -0.0378405 0.0112496 0.125358 
757 1 -0.0320595 0.189766 0.00511429 0.192523 
3555 2 -0.0528969 0.106389 0.0809288 0.143757 
3481 2 0.00382506 -0.0469477 -0.0545849 0.0720987 
135 1 -0.0464567 -0.036329 -0.0741001 0.0947039 
369 1 0.0931219 -0.0396429 -0.00763789 0.101497 
2148 1 -0.0491972 -0.0747218 0.0740193 0.116114 
3462 2 0.0343521 -0.0776606 -0.157993 0.179369 
1914 1 -0.0212922 -0.0303107 -0.0737774 0.0825542 
3661 2 0.0904561 -0.132567 -0.0209394 0.161848 
1871 1 0.00892364 0.0424344 -0.022351 0.048784 
320 1 -0.101146 -0.100111 -0.0594381 0.154226 
582 1 -0.087992 -0.0905445 -0.0193363 0.127729 
766 1 -0.00791427 0.031815 -0.060362 0.0686907 
3552 2 0.0747662 0.0216515 -0.0324073 0.084315 
2290 1 0.0145495 0.0848048 0.0213002 0.088641 
1794 1 -0.0723549 0.140253 0.0458496 0.164343 
753 1 -0.0169564 -0.010722 0.044403 0.0487248 
396 1 0.0533909 -0.0147402 0.173698 0.182316 
496 1 0.0240941 -0.0693327 -0.0815101 0.109688 
480 1 -0.0361065 -0.0799824 0.11185 0.142166 
253 1 0.0830501 -0.00319447 -0.0778317 0.113865 
4033 2 0.0162799 -0.0183368 -0.0556648 0.0608263 
347 1 -0.0293722 -0.0291861 -0.115035 0.12226 
586 1 -0.087828 0.0246299 -0.082414 0.122933 
3671 2 -0.0597024 0.0163066 -0.037948 0.0725971 
37 1 0.104569 -0.179133 -0.0699724 0.218905 
782 1 0.0452074 -0.12535 -0.0659023 0.148659 
481 1 0.112353 -0.0786658 -0.0525005 0.14686 
392 1 -0.0230967 -0.00596568 -0.0764198 0.0800565 
333 1 0.0148942 -0.036998 -0.0326282 0.0515295 
342 1 -0.00793529 -0.0630466 -0.081245 0.103144 
1179 1 0.037466 -0.098381 -0.0828499 0.133965 
517 1 0.0538923 -0.0881844 -0.0310888 0.107923 
1824 1 0.0311123 -0.0311339 0.020891 0.048721 
34 1 0.159978 -0.0402966 0.0518322 0.172926 
398 1 -0.00612392 -0.0353268 -0.062722 0.0722464 
170 1 -0.0508145 -0.0475307 -0.0247475 0.0738493 
235 1 0.0346606 -0.0540243 0.0637169 0.0904423 
3852 2 -0.0683907 -0.00525988 -0.0145947 0.0701282 
816 1 0.0460271 -0.0655076 -0.135661 0.157523 
3931 2 -0.183976 -0.0931055 0.061827 0.215263 
274 1 -0.0128258 -0.0774763 -0.0670906 0.103287 
30 1 -0.00567592 -0.0751614 -0.0234754 0.0789464 
2066 1 0.096075 -0.0285443 0.155426 0.184939 
1082 1 -0.0392483 -0.145604 0.165964 0.224243 
1372 1 0.0123897 -0.0438135 0.097966 0.10803 
1265 1 0.0273471 -0.0142715 -0.023664 0.0388783 
601 1 -0.0428266 0.0611442 0.0178242 0.0767491 
540 1 -0.0898533 -0.142696 -0.0220039 0.170059 
589 1 -0.0249737 0.0919667 0.164403 0.190026 
958 1 0.119802 -0.0148359 0.0904654 0.150853 
504 1 -0.0659222 0.0836192 -0.0290636 0.110375 
1349 1 -0.173002 -0.0267148 -0.00801666 0.175236 
9 1 0.0277013 -0.122633 -0.029156 0.12906 
149 1 -0.0315416 0.0109778 0.0071903 0.0341626 
163 1 -0.0189955 -0.259081 0.090187 0.274986 
4247 2 0.0615001 -0.116927 -0.113582 0.174227 
1584 1 0.173433 0.0109458 -0.0587816 0.18345 
3570 2 -0.0380293 -0.118332 -0.0837068 0.149851 
237 1 -0.0102837 0.0643833 0.116532 0.133532 
490 1 0.0602222 -0.135768 0.0442754 0.154984 
50 1 0.0455187 0.0266654 0.0367301 0.0642814 
152 1 0.106828 -0.0121273 -0.215495 0.240826 
3652 2 -0.0815853 -0.0670559 -0.0243008 0.108366 
3823 2 0.0864798 0.0661899 -0.175588 0.206618 
902 1 -0.0232773 0.0454873 0.0344026 0.0615992 
3574 2 0.00512107 0.0291705 -0.0141872 0.0328393 
770 1 -0.0136017 -0.0206256 -0.0864423 0.0899038 
154 1 -0.0649364 -0.0701503 -0.0131441 0.0964913 
116 1 0.0855829 -0.0416099 0.128416 0.159833 
710 1 -0.0779502 -0.157046 -0.0719127 0.189502 
1956 1 -0.0790341 -0.0303741 0.0262301 0.0886397 
1810 1 -0.115628 0.0092401 0.0049512 0.116102 
2072 1 -0.0404826 -0.0228933 -0.0640391 0.0791451 
1649 1 -0.0567694 -0.0144718 -0.120696 0.134163 
186 1 -0.107034 0.0750784 0.0506099 0.140194 
1063 1 -0.215716 0.187908 -0.146561 0.321439 
432 1 -0.159803 0.0551396 -0.0971258 0.194963 
2495 1 -0.0103763 -0.128117 0.00361065 0.128587 
3896 2 -0.050861 -0.00399539 -0.111475 0.122594 
460 1 0.085375 -0.0234616 -0.0452044 0.0994122 
913 1 0.0373705 0.0253904 -0.0173594 0.0484001 
1068 1 -0.101733 0.0391345 -0.0849913 0.138219 
265 1 -0.0871042 -0.0510081 -0.0856186 0.132361 
1287 1 0.0172704 0.0440543 0.0207881 0.0516836 
3799 2 0.150866 -0.101277 -0.120345 0.217946 
554 1 0.150902 -0.0615523 0.0211057 0.164333 
1414 1 -0.000583043 0.0613997 -0.0525064 0.080791 
213 1 0.00465718 0.0205423 0.0626849 0.0661292 
341 1 -0.114549 -0.0225471 0.0209907 0.118619 
3682 2 0.0222467 0.10504 -0.0505483 0.118674 
754 1 -0.0567239 0.00669243 0.044385 0.0723354 
112 1 -0.0199122 0.0529699 -0.000243734 0.0565894 
1041 1 -0.00726308 0.00757802 -0.0357376 0.0372472 
119 1 0.0503518 0.0861467 -0.050841 0.111988 
3998 2 0.0508668 -0.0531471 0.175702 0.190481 
995 1 -0.0517577 0.0153892 -0.0123547 0.0553925 
4128 2 0.0690576 -0.0238465 0.245922 0.256545 
8 1 0.0142834 0.0704003 0.00710843 0.0721855 
94 1 0.0471455 0.0660912 -0.0212336 0.0839143 
48 1 0.0874823 -0.0383119 0.115629 0.14997 
437 1 0.0778156 -0.0391229 -0.0262025 0.090953 
3866 2 0.0623424 0.0076868 -0.0521654 0.081651 
2206 1 0.0258378 0.023813 -0.0219152 0.0414117 
3490 2 -0.0322802 0.017145 -0.115931 0.121556 
3072 1 -0.021065 -0.117549 0.0587707 0.1331 
3002 1 0.118379 0.049169 -0.0244864 0.130502 
92 1 0.0323801 0.0897058 0.0552486 0.110218 
335 1 0.036307 0.0397963 -0.0334417 0.0634057 
2192 1 0.021953 0.0382749 0.170046 0.175677 
1186 1 0.0116231 -0.0351696 -0.0259811 0.0452439 
1114 1 0.066644 -0.0789582 0.0238003 0.10603 
1821 1 -0.121279 -0.075818 -0.0400012 0.148516 
1922 1 0.0415969 -0.0838755 0.0537348 0.107948 
451 1 -0.108859 -0.0324035 -0.0168181 0.114817 
3960 2 -0.0216362 -0.0368998 0.0661755 0.0787967 
100 1 -0.0676582 -0.0568864 -0.0330472 0.0943706 
1180 1 0.0490191 -0.0460211 -0.100103 0.120588 
165 1 0.0704517 0.00304765 -0.0497579 0.0863052 
388 1 -0.0528723 -0.0024726 -0.112351 0.124194 
3742 2 -0.00949861 -0.0559472 0.0202539 0.0602539 
323 1 -0.0997185 0.0891871 0.0533508 0.144029 
288 1 -0.122449 0.0260707 -0.0417044 0.131957 
3942 2 -0.107017 0.127041 0.108974 0.198663 
66 1 0.0441738 0.0418103 0.0974173 0.114846 
340 1 0.105224 0.0768199 -0.0427351 0.137112 
138 1 -0.024591 0.00835288 0.0677667 0.0725729 
879 1 -0.0633658 -0.0108396 -0.048367 0.0804493 
3808 2 0.0754533 0.188336 -0.052769 0.209638 
834 1 0.104237 0.0365117 -0.000738016 0.110449 
18 1 -0.0592941 -0.0671865 -0.105125 0.138135 
3679 2 0.1265 -0.0704938 -0.0963316 0.173929 
52 1 -6.94734e-05 -0.173746 0.0277744 0.175952 
407 1 0.014263 0.108342 -0.082852 0.137134 
360 1 0.0623236 -0.00406131 -0.0501386 0.0800913 
2885 1 -0.0656934 -0.00734839 0.0110989 0.0670284 
3526 2 -0.068277 -0.235798 -0.0149889 0.245941 
310 1 -0.0989506 -0.0403683 -0.0618773 0.123489 
326 1 0.0871518 -0.0393216 0.0838143 0.127147 
227 1 -0.0590111 -0.0760626 -0.0834578 0.127409 
2068 1 -0.0753735 0.0146787 -0.179551 0.195282 
456 1 0.108085 -0.0126521 0.0637591 0.126126 
279 1 0.0521476 0.0584904 0.163042 0.180896 
305 1 -0.00626506 0.014188 0.0283133 0.032283 
49 1 0.0128898 0.021408 0.00402679 0.0253114 
3512 2 0.0467563 -0.179406 0.0184403 0.186314 
11 1 -0.0711256 -0.166116 -0.0179616 0.181592 
189 1 -0.145363 0.0859801 -0.0196842 0.17003 
2271 1 -0.0706282 -0.101016 -0.0791032 0.146458 
319 1 -0.16317 -0.0619872 0.0261778 0.176499 
3566 2 0.0686612 0.0162947 -0.0549766 0.0894556 
71 1 0.0214834 -0.000986476 0.0445781 0.0494947 
1560 1 -0.0649207 0.0507156 0.0618765 0.103031 
190 1 -0.0813882 -0.00267335 0.134698 0.1574 
123 1 0.0719815 -0.0129274 0.0994228 0.123423 
27 1 -0.0109096 -0.0416265 0.0295583 0.0522061 
162 1 0.00654822 0.0569632 -0.0430796 0.0717185 
255 1 -0.143256 -0.0309658 0.0117535 0.147035 
304 1 -0.032473 0.00179305 -0.0978002 0.103066 
321 1 0.0222738 -0.025373 0.135046 0.139203 
682 1 -0.103201 0.000525182 -0.00416136 0.103286 
3469 2 0.0123407 -0.00500072 -0.0840631 0.0851111 
3539 2 0.00367716 -0.00921861 0.102065 0.102546 
128 1 0.0103709 -0.0859126 -0.102031 0.133787 
3562 2 0.112424 0.00963415 0.127835 0.170511 
560 1 -0.197417 -0.0673619 -0.0887131 0.226674 
212 1 0.0264361 0.0384015 -0.0738503 0.087335 
355 1 0.00755136 0.0397448 0.0681717 0.079272 
156 1 0.012849 0.0560743 0.0556617 0.0800478 
3620 2 0.0949425 -0.0555174 0.00523905 0.110108 
1823 1 0.189868 -0.187178 -0.0840458 0.279552 
1805 1 -0.151345 0.00685437 0.114086 0.189652 
2599 1 -0.0827884 0.0611035 0.108529 0.149553 
327 1 0.1355 0.0655457 0.0633334 0.163302 
137 1 0.0742711 0.0419794 -0.0308939 0.0907354 
2334 1 0.0170804 -0.000156952 0.0171181 0.0241826 
3698 2 0.00285236 -0.0376691 -0.0475211 0.0607071 
555 1 -0.0255109 -0.0297105 -0.0182564 0.0432067 
4178 2 -0.00645999 -0.0288212 0.00339033 0.0297302 
290 1 0.0217905 -0.0248555 -0.0666061 0.0743572 
284 1 0.0193701 0.0557639 0.0266276 0.0647598 
3543 2 -0.0718653 -0.105713 -0.0187538 0.129195 
366 1 0.0247365 0.00102494 0.126792 0.129187 
55 1 0.0378558 0.0467602 0.012982 0.0615476 
273 1 -0.0256882 0.0286119 -0.114711 0.120984 
3468 2 0.0987602 -0.0172874 0.160442 0.189193 
316 1 0.153365 0.0555144 0.148892 0.220843 
81 1 -0.0446312 -0.0466361 0.0045252 0.0647097 
322 1 0.0520951 -0.0342321 0.0562797 0.083983 
239 1 0.0575031 -0.0147753 -0.0443699 0.0741189 
734 1 -0.0174671 -0.0734959 -0.0606382 0.0968697 
384 1 -0.00388815 -0.0970169 -0.100709 0.139892 
3476 2 0.0275133 0.0918518 0.0125905 0.096707 
311 1 -0.0303739 -0.115614 -0.016948 0.120733 
3471 2 0.0367931 0.0319515 0.0696966 0.0850426 
1938 1 0.0719708 -0.0334446 0.0136399 0.0805256 
139 1 0.157554 0.0497906 -0.0653864 0.177701 
727 1 0.0938033 -0.147612 -0.0546368 0.18323 
1885 1 0.0140625 0.066432 0.0107527 0.0687502 
2184 1 0.219266 0.0618816 -0.0394265 0.231218 
2494 1 -0.151776 0.0351982 -0.0960002 0.183006 
2091 1 0.0153267 0.0177757 -0.0540232 0.0589015 
281 1 0.0228563 0.103899 0.149914 0.183825 
863 1 -0.039562 0.0806609 -0.0519055 0.103757 
176 1 -0.0631395 0.0337403 -0.105525 0.127517 
3710 2 0.0143497 0.0546096 -0.066414 0.0871719 
3572 2 -0.0564972 -0.107159 -0.102671 0.158796 
4197 2 0.00560274 0.0510719 -0.128079 0.138 
343 1 -0.0556216 -0.0247058 -0.0931342 0.111257 
282 1 -0.0249007 -0.00373716 -0.0804915 0.084338 
1038 1 0.0283169 0.0414775 0.0889222 0.102124 
408 1 0.169144 -0.0449205 0.0307259 0.177684 
412 1 0.102334 -0.00583758 0.0337941 0.107927 
820 1 0.106859 0.0590738 0.135259 0.182218 
585 1 -0.0605391 -0.0330519 -0.103422 0.124312 
3609 2 0.0639433 -0.134521 0.049776 0.157043 
719 1 -0.00193713 -0.014665 -0.00882416 0.0172244 
608 1 0.0799851 0.120045 0.116391 0.185352 
106 1 0.0062474 0.044918 0.0162004 0.0481571 
1047 1 -0.0965833 -0.0636005 -0.0452911 0.124196 
3573 2 0.0688288 0.0604943 -0.0675537 0.113844 
751 1 -0.00724581 -0.0466466 -0.0725465 0.0865529 
259 1 0.0523507 9.89426e-05 -0.0309286 0.0608044 
245 1 -0.0334124 -0.00730132 0.0202066 0.0397241 
613 1 -0.0372275 -0.120881 0.0719182 0.1455 
4296 2 -0.0181296 0.0545571 0.00550975 0.0577539 
272 1 -0.103994 -0.14336 -0.0497628 0.183965 
4239 2 -0.184741 -0.079248 -0.089168 0.21991 
88 1 0.0588138 0.106063 0.0955003 0.154366 
4 1 0.0652165 -0.00446348 -0.0454206 0.0795999 
361 1 0.145908 0.0717656 -0.144607 0.217602 
358 1 -0.0528859 0.053895 0.100179 0.125449 
194 1 0.0305631 0.0239737 -0.0976048 0.10505 
2373 1 0.0245786 -0.0059511 -0.0602295 0.0653232 
1982 1 0.0630899 0.0213495 0.0551691 0.0864856 
3953 2 0.0299906 0.0738086 0.0884219 0.119019 
414 1 0.0238673 0.047558 -0.160429 0.169023 
3186 1 0.0714944 -0.0222433 -0.0322583 0.0815279 
177 1 0.0780327 -0.025117 -0.010171 0.082604 
1962 1 -0.0197029 0.127927 0.164385 0.209227 
706 1 0.000932488 0.0673834 -0.000294551 0.0673905 
1544 1 0.0284314 -0.165405 0.0518066 0.175644 
4160 2 -0.00950124 0.0836707 -0.0112936 0.0849623 
19 1 -0.0619447 0.0987644 -0.0731722 0.137643 
3624 2 -0.0591347 0.00199656 -0.0780245 0.097922 
115 1 0.0404619 0.00826823 -0.139084 0.145085 
1102 1 -0.0542587 -0.0298171 0.087779 0.107416 
2048 1 0.130447 0.0205258 0.0241074 0.134235 
649 1 0.024222 0.0813168 -0.011527 0.0856271 
113 1 -0.0211018 -0.0876105 0.0287651 0.0945956 
1150 1 0.0055002 -0.00688438 0.0204747 0.0222904 
620 1 0.0369556 -0.103886 0.0215599 0.112351 
739 1 0.0301972 -0.0237258 -0.142977 0.148045 
2412 1 -0.0329299 0.00788326 0.00569822 0.0343365 
3746 2 0.102383 0.0157681 -0.193954 0.219884 
1225 1 -0.0197452 -0.00998176 0.161074 0.162586 
241 1 0.127582 -0.0497633 -0.00336317 0.136985 
83 1 0.0306155 -0.0434604 -0.00130864 0.0531773 
1006 1 0.06359 0.0157421 -0.0199772 0.0684879 
4046 2 -0.0858503 -0.0733904 -0.0307382 0.117052 
96 1 -0.0515846 -0.165628 0.0741656 0.188664 
411 1 0.147155 0.049229 0.0400399 0.160253 
2454 1 -0.0332801 -0.0147583 0.0619298 0.0718379 
404 1 -0.0147422 0.077273 0.0653995 0.102301 
226 1 0.0434035 -0.0213198 0.0415992 0.0637879 
534 1 0.056153 -0.0511163 0.126504 0.147544 
3538 2 -0.0902866 0.0730656 -0.0518737 0.127205 
761 1 0.0414725 -0.0432458 0.065875 0.0890488 
246 1 0.0359431 0.00326303 -0.0260928 0.0445352 
2229 1 -0.0957059 -0.125133 -0.0527405 0.166131 
146 1 0.0222326 -0.149316 -0.0721558 0.16732 
3608 2 -0.0390923 -0.0118859 0.0374335 0.0554143 
503 1 0.0620132 -0.0282871 -0.0194048 0.0708685 
505 1 0.133632 -0.0821758 0.0238543 0.158681 
1430 1 -0.0285875 -0.0754045 -0.0873901 0.118912 
97 1 -0.150978 0.0659642 -0.0846116 0.185216 
1723 1 0.0135195 -0.0309114 -0.0910519 0.0971017 
3561 2 0.032888 0.203415 -0.0626459 0.215369 
20 1 -0.067324 -0.00370193 0.0215128 0.0707744 
263 1 -0.0529953 0.160884 -0.0123692 0.169839 
817 1 0.0981967 -0.0904783 0.0244363 0.135743 
1034 1 -0.0331167 0.0529366 0.00734732 0.0628727 
353 1 0.00292341 -0.0973115 0.18093 0.20546 
1260 1 0.0394581 0.113731 -0.068683 0.138596 
998 1 0.0396367 0.133244 -0.0843699 0.162614 
1932 1 0.121357 -0.102724 -0.056925 0.168879 
36 1 0.0824185 -0.192139 -0.0990237 0.231335 
38 1 0.0331615 0.0648285 -0.0395623 0.082871 
3130 1 -0.0122425 -0.014713 -0.0485763 0.0522112 
1973 1 0.105116 0.0999771 0.129996 0.194792 
307 1 0.107267 -0.0258441 0.0464751 0.119725 
2714 1 0.0727207 0.0218109 -0.00394794 0.0760237 
28 1 0.0649866 0.0718638 -0.0150359 0.0980496 
1937 1 0.0107976 0.0830109 -0.0706965 0.109569 
562 1 -0.0651935 -0.108774 -0.0353518 0.13165 
3011 1 -0.00182181 0.021054 -0.017241 0.0272735 
410 1 0.0661916 -0.142407 0.0490679 0.164526 
693 1 0.101305 0.0662506 0.195504 0.229943 
367 1 0.00421756 0.0104853 -0.00295997 0.0116829 
318 1 0.0421167 0.0352287 -0.158548 0.167786 
735 1 0.158868 0.0183382 0.0303244 0.162773 
600 1 0.0155091 0.00132716 0.0396981 0.0426408 
3590 2 0.0626938 0.116815 0.0742096 0.151932 
3636 2 0.0541721 -0.0635439 0.00997452 0.0840948 
26 1 -0.147201 0.0240157 0.0914439 0.174948 
1199 1 0.0365262 0.107585 -0.059278 0.128151 
614 1 0.0149562 0.0519554 -0.09959 0.113319 
459 1 -0.0983882 -0.0496664 -0.0536666 0.122585 
3645 2 0.0601454 0.121825 0.0582622 0.147829 
574 1 0.0801481 -0.0945395 0.136218 0.184165 
780 1 0.146707 0.0308787 0.0144363 0.150614 
161 1 -0.11072 -0.0542706 0.161614 0.203281 
309 1 0.102817 0.0791582 -0.0247453 0.132097 
365 1 0.0777826 -0.130309 -0.0133683 0.152346 
191 1 -0.0790812 0.0970771 -0.0203657 0.126856 
1766 1 -0.0749839 -0.0498922 -0.00354155 0.0901353 
2775 1 0.114956 -0.0649079 -0.031015 0.135609 
1030 1 0.120673 -0.15332 0.00752605 0.195258 
1505 1 0.173322 0.176371 0.136955 0.282673 
3872 2 -0.0580014 0.032176 -0.0223367 0.0699885 
580 1 -0.023363 -0.032963 0.0211034 0.0455822 
2054 1 -0.0181951 -0.100188 -0.017762 0.103364 
2064 1 0.0658016 0.0200101 0.00730153 0.0691633 
529 1 0.00971745 0.0268173 -0.064323 0.0703636 
402 1 -0.0338305 0.0782373 0.00646052 0.0854828 
124 1 -0.106337 -0.0725177 0.0350599 0.1334 
744 1 0.110778 -0.0280092 0.0683445 0.133144 
185 1 0.056681 -0.0415636 0.0884891 0.113007 
315 1 0.0380649 -0.0261959 -0.0175839 0.0494404 
655 1 0.00310893 -0.099939 0.181056 0.20683 
765 1 0.0240784 0.0125612 0.0375099 0.0463093 
140 1 -0.0186018 0.051943 -0.177147 0.18554 
59 1 0.0324313 -0.0342175 0.0909493 0.102442 
54 1 0.0333499 0.0812627 0.0366145 0.0951654 
3506 2 -0.0349677 0.124033 -0.127558 0.181323 
666 1 0.0368093 -0.221914 0.0839628 0.240105 
43 1 0.0903197 0.0617422 0.115441 0.159049 
334 1 -0.0993402 -0.0722755 0.0829061 0.148208 
267 1 0.12422 0.0638527 -0.162108 0.213978 
99 1 0.0870447 0.119491 0.0813303 0.168729 
1189 1 -0.127465 0.000290848 -0.18772 0.226906 
201 1 -0.0419093 -0.0246817 -0.0461616 0.0670557 
380 1 -0.00663382 0.0894851 -0.125189 0.154026 
1777 1 -0.0114679 -0.0162253 -0.0604286 0.0636112 
2597 1 0.203773 0.00791486 0.0680931 0.214995 
2484 1 0.158415 -0.0306109 0.020567 0.162651 
308 1 0.0271559 -0.00630466 -0.08983 0.0940565 
3918 2 -0.0167023 0.164328 0.0984924 0.192311 
89 1 -0.108633 0.0258798 0.0108543 0.112199 
300 1 -0.0349861 -0.0190257 0.0250415 0.0470434 
3582 2 0.0735323 -0.0269316 -0.0634199 0.100769 
712 1 -0.0226445 0.110955 -0.0868527 0.142714 
3836 2 -0.0291408 0.0932307 -0.04849 0.109052 
268 1 -0.0339348 0.000229692 0.069177 0.0770524 
788 1 -0.0157453 0.118623 -0.0508998 0.130039 
4091 2 -0.0329708 0.128365 -0.0154872 0.133433 
371 1 -0.000263543 0.0121977 0.119688 0.120308 
3505 2 0.109073 -0.0055188 -0.00461803 0.109311 
266 1 0.135951 -0.0465917 -0.10234 0.176429 
3571 2 0.00426276 -0.0732318 0.0774925 0.106706 
637 1 -0.0363647 -0.0124877 -0.0828372 0.0913254 
157 1 -0.0726567 -0.0430383 0.0701955 0.109812 
257 1 -0.0259378 0.00733242 0.0383952 0.0469119 
571 1 0.00281518 0.0403887 0.0421086 0.058415 
665 1 -0.146867 -0.0519359 0.135616 0.206541 
448 1 -0.184604 -0.137308 0.0033751 0.230095 
827 1 0.0651635 0.072416 0.044579 0.107134 
3475 2 0.0946456 0.0203143 0.0504059 0.109139 
73 1 -0.0428565 0.0646271 -0.0160343 0.0791861 
373 1 0.101377 0.010671 0.0791989 0.129088 
247 1 0.034146 -0.00058987 -0.0779443 0.0850977 
107 1 0.0598977 0.0699708 -0.0847879 0.12519 
675 1 -0.0795796 0.0367758 -0.117506 0.146605 
434 1 0.0935249 0.0714129 -0.054263 0.129581 
159 1 -0.050431 0.092117 -0.0566034 0.119301 
32 1 0.0578645 0.131851 -0.02219 0.145689 
3579 2 0.0888047 -0.0135342 -0.148865 0.173869 
394 1 -0.0602191 0.00704797 0.0728153 0.0947528 
260 1 0.0138906 0.0432557 0.0456655 0.0644154 
3972 2 -0.0749038 0.0586543 0.0764384 0.12204 
1801 1 -0.0422073 0.0456918 0.0203067 0.0654336 
2122 1 0.0269486 0.04752 0.191063 0.198719 
1966 1 0.0309576 -0.0588251 -0.087338 0.109757 
291 1 -0.0116341 0.00236457 0.063499 0.0645992 
2047 1 0.0897374 0.0485543 0.00162463 0.102044 
1899 1 0.049961 0.0629224 -0.0110598 0.0811026 
622 1 -0.00368257 0.173035 -0.0214057 0.174393 
1993 1 0.00683585 -0.011477 0.0289891 0.0319189 
62 1 0.00687704 0.0223484 0.0610319 0.0653578 
2187 1 -0.0732349 0.0598937 -0.102694 0.13963 
4318 2 0.0948691 0.0280183 0.0369511 0.105596 
44 1 0.0222276 0.0520738 0.0956568 0.111157 
824 1 0.0398218 -0.0219049 0.0860487 0.0973139 
1282 1 0.0358614 0.0116167 0.0923578 0.0997545 
3626 2 0.161598 0.099334 -0.050206 0.196219 
819 1 0.0753824 0.118583 0.0524764 0.149994 
773 1 -0.121439 -0.166231 0.0622139 0.21506 
270 1 -0.0665764 -0.052904 -0.0616951 0.10506 
14 1 -0.135315 -0.059359 0.010407 0.148128 
3540 2 0.0601772 -0.0886509 0.0276791 0.110663 
997 1 0.0534541 -0.0012966 -0.100131 0.113514 
4275 2 -0.0390008 -0.0844906 -0.192661 0.213958 
164 1 0.0110641 0.0296918 0.121046 0.125124 
234 1 0.030547 -0.00651219 0.0576613 0.0655771 
1125 1 -0.0135566 -0.0546891 -0.0722743 0.091642 
3985 2 0.0173593 0.0231348 0.0436531 0.0523656 
328 1 0.011395 -0.00397468 -0.0313055 0.0335511 
3474 2 0.0519143 0.00559477 -0.0762022 0.0923751 
543 1 -0.0469391 -0.0102967 0.0167143 0.0508789 
293 1 0.0934487 -0.0817741 0.127182 0.17775 
3458 2 0.126188 -0.0199386 0.110144 0.168679 
390 1 -0.0135449 0.00246777 -0.134017 0.134722 
3706 2 0.0774889 -0.234707 -0.176333 0.30362 
2169 1 0.0882671 0.0745085 -0.0926512 0.148077 
1786 1 0.0719405 -0.00894223 -0.00160339 0.0725119 
1478 1 -0.0397416 0.0618652 0.0894485 0.115792 
87 1 0.0242404 0.00841071 -0.0428212 0.0499199 
4090 2 -0.0903019 -0.0339919 0.0341615 0.102357 
142 1 0.0193795 0.0223306 0.00650389 0.0302741 
1650 1 -0.082633 -0.107135 -0.0385843 0.140694 
153 1 0.0870309 -0.0441057 0.0152873 0.0987592 
374 1 0.0161678 -0.0795439 -0.0954599 0.125305 
602 1 0.0269504 -0.044028 -0.136283 0.145732 
1277 1 -0.0548069 0.0151106 0.0272742 0.0630556 
76 1 0.0333576 0.0109405 0.182368 0.185716 
1370 1 0.049962 -0.0305817 0.067463 0.089346 
221 1 -0.0319707 0.0566012 -0.0167949 0.0671408 
604 1 -0.112461 0.0248479 0.0658943 0.132691 
1161 1 -0.0158277 -0.0755118 0.0688876 0.103431 
1718 1 -0.048263 0.0377557 -0.108023 0.124192 
178 1 -0.0908923 -0.286332 -0.029388 0.301846 
295 1 -0.178313 -0.0961928 -0.013162 0.203031 
1472 1 -0.101408 -0.0034744 -0.0433689 0.110347 
4159 2 0.000830651 -0.0377532 -0.0182919 0.0419593 
3467 2 0.0782969 0.00888656 -0.0750456 0.108817 
3531 2 -0.0996716 -0.0919685 0.143731 0.197614 
2720 1 -0.0132641 0.0628467 -0.0772361 0.100454 
1851 1 -0.0214263 0.000818889 -0.00437213 0.0218831 
732 1 0.0379668 -0.0683542 0.0260597 0.082419 
446 1 -0.308246 0.101509 0.0940932 0.337895 
3878 2 0.0718772 0.10002 -0.0410206 0.129819 
3185 1 -0.167729 0.0045225 -0.00429813 0.167845 
110 1 -0.110314 0.015224 0.00828664 0.111668 
2963 1 -0.0320606 0.0549715 -0.0219525 0.0673176 
2608 1 -0.00696641 -0.0123954 0.0207083 0.0251199 
3301 1 0.0368537 0.0257422 0.141942 0.14889 
3759 2 -0.0426502 -0.054826 -0.0393378 0.0798273 
4171 2 -0.11424 0.0299329 0.0787942 0.141969 
2118 1 -0.0182396 0.0204742 -0.0667502 0.0721628 
1742 1 0.000879754 0.00919012 0.0452623 0.0461942 
642 1 0.0491403 -0.225573 -0.00586306 0.230938 
3366 1 -0.0595788 0.018026 0.0719755 0.095158 
144 1 0.104492 0.114271 -0.0138635 0.155462 
681 1 0.0233475 -0.00145383 -0.0895318 0.0925374 
1666 1 0.0253042 -0.0567035 -0.0497451 0.0795623 
183 1 -0.0806561 -0.118709 -0.0438596 0.15007 
694 1 -0.124447 0.0187888 0.0653335 0.141804 
444 1 -0.0631306 0.0343556 -0.134631 0.152615 
869 1 -0.0440125 -0.143376 0.13972 0.204976 
920 1 -0.07282 -0.150332 0.0556483 0.176066 
53 1 0.095643 -0.0055908 0.0494351 0.107809 
1450 1 -0.292657 -0.0129009 -0.0974905 0.308737 
1579 1 0.0162594 -0.0802825 0.0477518 0.094815 
51 1 0.104639 -0.0405323 -0.0536145 0.124365 
4187 2 -0.0809323 -0.0856631 -0.143445 0.185647 
1694 1 0.0143726 -0.107631 0.245278 0.268239 
1590 1 0.0468579 0.0127826 -0.0639222 0.0802814 
2005 1 0.0826542 -0.128795 0.121623 0.195479 
736 1 -0.13809 0.029277 -0.0264994 0.143626 
363 1 0.142139 0.00953105 -0.00278235 0.142485 
230 1 -0.0173885 0.000156473 0.119562 0.12082 
2538 1 0.0964032 -0.102507 -0.0315831 0.144218 
357 1 -0.0537891 0.00659743 -0.0624264 0.0826671 
3849 2 0.187458 -0.0620861 -0.152963 0.249786 
4102 2 0.00984844 -0.132145 0.0645699 0.147406 
1032 1 0.0763915 0.0564836 0.0734354 0.120078 
78 1 0.00892966 0.0553569 -0.0177884 0.0588265 
564 1 0.299674 -0.0819557 0.092506 0.324158 
797 1 0.149697 -0.0637169 -0.00540804 0.162783 
1476 1 0.253435 0.0559956 -0.0108525 0.259774 
872 1 -0.076678 0.0238498 -0.0441482 0.0916373 
475 1 0.0322887 -0.0221138 -0.00673239 0.0397102 
4119 2 0.286119 -0.13524 -0.101921 0.332478 
576 1 -0.119114 0.0632403 0.0808655 0.157247 
507 1 0.0505416 -0.151475 0.0330504 0.163069 
248 1 0.0456112 -0.0486458 -0.0304569 0.0733104 
3597 2 -0.0703519 0.0528817 0.0782138 0.117742 
539 1 -0.00296167 -0.0372049 0.0374712 0.0528873 
63 1 0.0677732 -0.0190335 0.126358 0.144644 
57 1 -0.0295274 -0.089691 0.0228777 0.0971583 
854 1 -0.0730283 0.00317791 0.0204303 0.0758988 
668 1 0.0877521 -0.138137 -0.079848 0.182093 
385 1 -0.0884875 -0.270275 0.122249 0.309553 
752 1 0.00138126 0.0613279 -0.0289048 0.0678123 
3650 2 0.00155735 0.161773 -0.0956473 0.18794 
3736 2 -0.0899245 -0.19164 0.0595794 0.219913 
254 1 -0.164004 -0.142049 0.0103517 0.217215 
3637 2 -0.0176276 -0.0464287 0.0250215 0.0556096 
731 1 -0.0351897 -0.0837995 0.0183647 0.092725 
2304 1 0.0859856 -0.161741 0.0128334 0.183626 
610 1 -0.215344 0.0282906 -0.103868 0.240753 
292 1 -0.143577 0.0250054 -0.0171078 0.146739 
313 1 -0.097179 0.00387583 0.014713 0.0983628 
2133 1 -0.0166484 -0.091058 -0.0468837 0.103763 
646 1 -0.104537 -0.0337651 -0.0968557 0.146455 
271 1 0.0344214 0.122485 0.0455444 0.135136 
584 1 -0.0464483 0.125389 -0.0609284 0.146943 
3649 2 -0.0833442 -0.00991878 0.0539861 0.0997955 
1148 1 -0.0392602 0.133011 0.135189 0.193673 
779 1 -0.122113 -0.0791967 0.0507283 0.154133 
621 1 -0.136418 0.0633376 0.022347 0.152055 
16 1 -0.0365668 -0.0306072 0.11322 0.122852 
3635 2 -0.0777894 -0.241624 0.0606562 0.260983 
790 1 0.0980397 0.0315871 0.12411 0.161285 
17 1 -0.0379948 -0.0547623 0.138006 0.153258 