ITEM: TIMESTEP
32
ITEM: NUMBER OF ATOMS
4320
ITEM: BOX BOUNDS pp pp pp
0.0000000000000000e+00 1.9309999999999999e+01
0.0000000000000000e+00 1.9309999999999999e+01
0.0000000000000000e+00 9.6549999999999994e+00
ITEM: ATOMS id type c_displacement[1] c_displacement[2] c_displacement[3] c_displacement[4] 
4012 2 0.008852 -0.0546003 0.00501485 0.0555401 
2361 1 -0.0165639 -0.0176675 -0.0382302 0.0452554 
79 1 -0.0537566 -0.066078 0.030741 0.0905598 
781 1 0.053821 -0.0166305 0.0242305 0.061322 
461 1 -0.00904181 -0.0141996 -0.0271604 0.0319542 
3704 2 -0.0103035 -0.0481949 0.0251773 0.0553427 
629 1 -0.0490647 0.0261219 0.0321406 0.0642083 
1571 1 0.0035988 0.00864452 -0.0267536 0.0283449 
58 1 0.0958469 0.0161651 0.13115 0.163243 
2372 1 -0.0505287 -0.0447163 -0.0172109 0.0696341 
372 1 -0.00877324 0.000718691 -0.0200954 0.0219388 
3504 2 0.000261219 -0.0679381 0.0293167 0.0739941 
4130 2 -0.00984732 -0.0206611 -0.0431705 0.0488625 
1262 1 0.0323125 0.0802991 -0.0697205 0.111144 
907 1 -0.067674 -0.0497207 -0.115555 0.142846 
3659 2 0.0334354 0.1412 -0.0757358 0.163681 
1298 1 0.0717043 0.0411022 -0.0732946 0.110467 
1716 1 0.00603542 0.0883985 -0.0455299 0.0996178 
1182 1 0.00382566 0.00791478 0.0124933 0.0152762 
683 1 -0.00263162 -0.0247432 0.0438733 0.0504383 
1958 1 0.0323046 -0.066398 0.0527318 0.0907355 
1554 1 0.0061455 -0.0634833 -0.0455406 0.0783699 
1037 1 -0.031449 -0.148915 0.0172358 0.153172 
749 1 -0.0877557 -0.0374091 0.0395417 0.103267 
3628 2 0.0579267 0.0453481 0.0319834 0.0802177 
946 1 -0.0308016 0.00669191 -0.0472726 0.0568175 
2232 1 0.0286519 -0.00290525 -0.0731158 0.078583 
7 1 0.0270963 0.00474641 0.00415446 0.0278208 
501 1 0.0224375 0.093386 -0.0766448 0.122877 
179 1 -0.0197151 -0.0216236 -0.0935479 0.0980177 
714 1 -0.0305888 -0.0363927 0.105456 0.115676 
4166 2 0.00849639 -0.0442704 -0.0401509 0.0603668 
276 1 -0.0268378 0.040901 0.072586 0.0875323 
767 1 -0.0586216 -0.0158378 0.0600854 0.0854259 
3890 2 -0.126807 -0.0329234 -0.0795206 0.153256 
6 1 -0.00338093 0.0798478 -0.00330289 0.0799875 
2086 1 -0.014428 -0.00165476 0.0416304 0.0440907 
224 1 0.00407759 -0.0186346 0.000417212 0.0190801 
3660 2 0.0380042 0.0373733 0.0195207 0.0567639 
596 1 -0.0577935 -0.0103938 -0.0225128 0.0628884 
1214 1 -0.0034058 -0.0459447 -0.0363269 0.05867 
3686 2 0.0372434 0.0267467 0.00938117 0.0468024 
427 1 -0.0489284 0.0686768 0.0643479 0.106071 
350 1 0.00678325 0.0498478 0.0151733 0.0525456 
85 1 -0.0290197 -0.0103528 -0.00589241 0.0313695 
598 1 -0.035896 -0.0163637 0.0965688 0.104316 
3554 2 0.00426361 -0.0210525 -0.0251084 0.0330427 
29 1 -0.0216874 0.0556277 0.0379227 0.0707313 
464 1 -0.0328041 0.0270189 -0.0319556 0.0531723 
3619 2 -0.024724 0.0305251 0.0644019 0.0754365 
12 1 0.0528376 -0.153696 0.0460765 0.16893 
364 1 -0.0841144 0.031497 -0.0525548 0.104064 
1849 1 -0.0898466 -0.0493971 0.0236157 0.105215 
3663 2 -0.100288 0.0398588 -0.0652519 0.126112 
3517 2 0.0333418 0.0127492 0.0665313 0.0755026 
25 1 0.102035 -0.0306024 -0.0228648 0.108951 
4163 2 -0.0126667 0.0216966 -0.0159519 0.0297599 
399 1 0.00190692 0.00969533 -0.0155609 0.018433 
4265 2 -0.0306665 0.053949 0.0170621 0.0643587 
527 1 -0.00340852 -0.0155085 -0.0272797 0.0315644 
200 1 0.0689315 0.0233496 0.0330405 0.0799277 
1951 1 0.090585 0.0646653 0.030329 0.115356 
644 1 0.0331753 -0.038078 0.0530016 0.07321 
193 1 0.00415907 0.0752255 -0.0186229 0.0776079 
550 1 -0.00139654 -0.0296458 -0.0172747 0.03434 
69 1 -0.00220156 -0.0340033 0.0231661 0.0412036 
842 1 -0.0561732 0.0335334 -0.0791551 0.102691 
578 1 -0.042987 0.0269543 -0.00343128 0.0508546 
172 1 0.00141665 -0.0757503 0.0206833 0.0785361 
381 1 -0.00828777 0.0614196 -0.0741792 0.0966623 
3524 2 0.0545154 -0.0800525 0.0957137 0.136167 
688 1 -0.0485664 0.0696723 -0.00589905 0.0851335 
3651 2 -0.0167043 0.0474569 0.00882191 0.0510786 
2367 1 0.0325629 0.0242791 -0.0045879 0.0408762 
1244 1 -0.0525353 0.0335832 0.0364046 0.0722017 
796 1 -0.0903488 0.0713118 -0.0241398 0.117605 
691 1 0.0499094 -0.0105344 0.0148108 0.0531157 
421 1 0.0148026 0.0208071 0.0978746 0.101151 
597 1 -0.0490184 0.0528754 -0.0184039 0.0744132 
3617 2 0.00716113 0.0156988 -0.0499043 0.0528031 
120 1 0.0532151 0.0399674 0.0219084 0.0700658 
769 1 -0.0364947 0.0183567 0.0439529 0.0600058 
2142 1 -0.003072 0.0156763 -0.014474 0.0215564 
3611 2 0.100989 0.0537765 0.091376 0.146425 
1915 1 -0.0263435 0.0337323 0.00354846 0.0429469 
2140 1 -0.0213047 0.0056683 0.0778317 0.0808937 
3828 2 0.0850075 0.0169277 0.0306804 0.0919463 
3204 1 0.00594291 0.0700838 0.0267274 0.0752423 
175 1 0.0666128 0.0471166 -0.0343571 0.0885305 
2011 1 0.0608522 0.0248054 -0.0336036 0.0738072 
75 1 -0.0127797 0.0584329 0.0215017 0.0635614 
547 1 -0.0423704 0.00339887 -0.0420671 0.0598034 
4316 2 -0.0280738 0.0227728 -0.0081479 0.0370557 
559 1 0.0255832 0.0320332 -0.0325451 0.0523432 
717 1 0.0196669 0.0405171 -0.0285702 0.0533356 
242 1 0.00907401 -0.0190055 0.0505001 0.0547157 
3510 2 -0.0389926 0.0197041 0.0423195 0.0608245 
130 1 0.0486618 -0.0390053 0.0832562 0.104024 
143 1 -0.0133945 0.0306496 -0.045959 0.0568422 
202 1 -0.0979455 -0.0266983 -0.0490942 0.112767 
182 1 -0.096096 0.0434878 -0.0081428 0.105792 
84 1 0.0285037 -0.0539699 -0.050977 0.0795227 
3633 2 0.015152 -0.0559515 0.050064 0.0765935 
35 1 -0.104304 -0.0434915 0.082698 0.140035 
3612 2 0.0177778 0.040697 -0.082643 0.0938198 
40 1 0.103145 0.0673506 0.0513368 0.133456 
4005 2 0.0440797 -0.0639102 0.0172957 0.0795404 
718 1 -0.0143287 0.0292602 -0.035861 0.0484508 
134 1 -0.00698743 -0.0373653 0.0473334 0.0607078 
511 1 -0.030326 -0.0724808 0.0662063 0.102744 
757 1 0.0525866 0.115358 -0.00300091 0.126814 
3555 2 -0.0545699 0.0235453 0.018813 0.0623392 
3481 2 -0.0248755 0.0154253 -0.0279062 0.0404411 
135 1 0.0125507 -0.0464012 -0.00220452 0.0481191 
369 1 0.0269361 -0.0285899 0.0938868 0.101773 
2148 1 -0.0537339 -0.0300912 -0.0160793 0.0636503 
3462 2 0.0367844 -0.0618004 -0.111057 0.13231 
1914 1 -0.0188998 0.0117742 0.00506277 0.0228356 
3661 2 0.053684 -0.0722356 0.0187079 0.0919235 
1871 1 0.0190398 0.0187678 -0.026605 0.0377169 
320 1 -0.0328851 -0.0197375 -0.0331548 0.0506975 
582 1 -0.00788049 -0.0823404 0.000664222 0.0827194 
766 1 -0.0309982 0.0128484 -0.00266383 0.0336611 
3552 2 -0.00770057 -0.045802 0.0147878 0.0487422 
2290 1 -0.0348166 0.0385571 0.0412719 0.0663492 
1794 1 0.0133579 -0.00333027 0.0315624 0.0344341 
753 1 -0.0710743 0.029924 0.00969094 0.0777233 
396 1 -0.0087736 -0.024586 0.0771858 0.0814806 
496 1 -0.00523838 0.0404084 -0.0641103 0.0759632 
480 1 -0.0332505 -0.045745 0.0571034 0.0803679 
253 1 0.0425296 0.00194166 -0.00283994 0.0426685 
4033 2 -0.00352183 0.0186984 -0.0313175 0.0366445 
347 1 -0.052633 0.015006 0.0385628 0.0669515 
586 1 -0.0547491 0.0302712 -0.0901539 0.109734 
3671 2 0.0895581 0.00748114 -0.0823642 0.121904 
37 1 -0.0111097 -0.0526735 0.0126481 0.0552983 
782 1 0.023555 -0.0704233 -0.00753908 0.0746399 
481 1 0.0403316 -0.00332235 -0.0560675 0.0691465 
392 1 -0.0475013 0.0323137 -0.0832023 0.10111 
333 1 0.0306597 -0.0410262 -0.0201983 0.0550558 
342 1 0.00126025 0.00798096 -0.0326734 0.0336576 
1179 1 -0.0102397 0.00730555 -0.044963 0.0466894 
517 1 -0.0127886 -0.0441956 -0.0296224 0.0547201 
1824 1 0.0518495 -0.0338167 0.0975648 0.115546 
34 1 0.0121759 0.0198959 0.0331318 0.0405194 
398 1 0.00812999 -0.0196989 -0.0376447 0.0432581 
170 1 -0.0564513 -0.0455045 -0.0381849 0.0819481 
235 1 0.0141841 -0.106457 0.0277162 0.110916 
3852 2 -0.0152552 -0.0450542 -0.00849628 0.0483197 
816 1 0.0343098 -0.00234432 -0.0142644 0.0372308 
3931 2 -0.074962 -0.0818659 0.0966693 0.147195 
274 1 -0.0290615 -0.0368023 -0.0147288 0.0491519 
30 1 0.0246692 0.00111601 -0.0216354 0.0328315 
2066 1 0.0623561 -0.0424068 0.0838658 0.112783 
1082 1 0.0190499 -0.0152566 0.0361572 0.0436235 
1372 1 0.00461735 -0.0280572 0.0718054 0.0772305 
1265 1 0.0594208 -0.0147059 -0.0704772 0.0933496 
601 1 0.0329607 0.045985 0.0435271 0.0713837 
540 1 0.0185749 0.0307925 0.0297296 0.046659 
589 1 -0.031031 0.0999873 0.0466428 0.114612 
958 1 0.0566073 0.0057684 -0.0300621 0.0643536 
504 1 -0.0687511 0.0307717 -0.00753681 0.0756995 
1349 1 -0.0209908 0.0430122 -0.0230141 0.0531066 
9 1 0.00223524 -0.0817031 0.0312165 0.0874921 
149 1 0.0116367 0.0556133 0.011483 0.0579665 
163 1 0.0270959 -0.0403109 -0.0119338 0.0500158 
4247 2 0.0107447 -0.0351491 -0.0510542 0.0629082 
1584 1 0.119816 -0.0134543 -0.0949696 0.15348 
3570 2 -0.0258601 -0.0532507 0.00417791 0.059345 
237 1 0.0167942 0.0365975 0.0083433 0.0411222 
490 1 -0.0186621 -0.0442014 0.00980031 0.0489702 
50 1 -0.041183 -0.0721937 0.0334754 0.0896023 
152 1 0.0248327 0.0132664 -0.00225958 0.0282448 
3652 2 0.0022902 -0.0164781 0.000307209 0.0166393 
3823 2 0.00131258 0.0632485 -0.0724202 0.0961602 
902 1 0.0271901 0.0548127 -0.0194473 0.0642023 
3574 2 -0.0247016 0.0426171 -0.0499583 0.0701585 
770 1 -0.00739451 -0.0525113 -0.0173119 0.0557836 
154 1 0.00330561 -0.0128262 -0.0221656 0.0258215 
116 1 0.07084 -0.0522688 0.0222228 0.0907975 
710 1 -0.0660174 -0.108408 -0.0343273 0.131488 
1956 1 -0.00763097 0.0453577 -0.066435 0.0808032 
1810 1 -0.0954581 -0.0316747 0.0770131 0.126675 
2072 1 -0.0289391 -0.0230505 -0.0221614 0.0431268 
1649 1 -0.0125184 0.000691195 -0.0314383 0.0338461 
186 1 -0.0321908 -0.0227872 0.0732341 0.0831789 
1063 1 -0.0252605 0.0387341 -0.129928 0.137912 
432 1 -0.071795 0.0653012 -0.0803598 0.126002 
2495 1 -0.0770239 -0.088475 0.0646976 0.133964 
3896 2 0.00325655 -0.0102549 -0.0355829 0.0371741 
1071 1 -0.0199427 -0.0338323 -0.0437194 0.0587684 
913 1 0.0506382 -0.0663628 0.0328378 0.0897027 
1068 1 0.0487724 0.0231514 0.000668434 0.0539925 
265 1 -0.05208 0.0206276 -0.0191752 0.0592074 
1287 1 0.0109819 0.0921892 -2.77774e-05 0.092841 
3799 2 0.0283031 -0.0362821 -0.0730597 0.0863433 
554 1 0.0306463 -0.0303343 -0.0663383 0.079121 
1414 1 -0.023991 0.0359013 -0.069369 0.0817101 
213 1 0.00141788 -0.0335439 0.00306051 0.0337131 
341 1 -0.0513925 -0.0309338 -0.0319126 0.0679448 
3682 2 -0.0398372 0.0108417 -0.0426738 0.0593768 
754 1 -0.0434164 0.091278 -0.00572289 0.101239 
112 1 -0.0542707 0.0382218 0.00543829 0.0666018 
1041 1 -0.02232 -0.0782226 0.0191772 0.0835746 
119 1 0.00124087 -0.0151411 0.0742214 0.0757602 
415 1 0.0139654 0.045268 -0.0347742 0.0587662 
995 1 -0.0371651 0.0340418 0.0192071 0.0539351 
4128 2 -0.0305063 -0.0377782 0.0984113 0.109739 
8 1 0.059363 0.0540242 -0.00421568 0.0803763 
94 1 0.00296868 -0.0574086 0.00587407 0.0577847 
48 1 0.0134271 0.0197288 0.00438176 0.0242634 
3998 2 0.0191581 0.0385581 0.0353933 0.0557355 
3866 2 0.0369046 0.0234716 -0.0103422 0.0449425 
2206 1 0.019764 -0.00930526 -0.0151906 0.0266075 
3490 2 -0.0658526 -0.00904026 -0.0127302 0.0676783 
3072 1 0.00458504 -0.0391571 0.0563477 0.0687704 
3002 1 0.0737661 0.0253927 0.0303969 0.0837269 
92 1 0.013525 0.0895752 0.0770564 0.11893 
335 1 -0.0427361 0.0631261 -0.0472363 0.0896803 
4034 2 -0.11659 -0.104677 0.0358978 0.160746 
1186 1 0.0186684 0.00744692 0.00830592 0.0217475 
1114 1 0.0738729 0.0361604 0.0262407 0.0863328 
1821 1 -0.0216875 -0.0461278 -0.0501809 0.0715279 
1922 1 0.00230755 -0.0739124 0.00970659 0.0745828 
451 1 -0.0690299 -0.0457507 -0.00457203 0.0829406 
3960 2 0.00417275 -0.0263212 0.0137542 0.0299899 
100 1 -0.0238309 0.0419012 -0.0506696 0.0699359 
1180 1 -0.00887355 -0.0440894 -0.0572599 0.0728101 
165 1 0.0652646 -0.0119534 -0.00839153 0.0668788 
388 1 -0.0600159 -0.0550382 -0.0299174 0.0867535 
3742 2 0.0701851 -0.0347412 0.0330337 0.0849948 
323 1 -0.075457 0.0926247 -0.0733012 0.140165 
288 1 -0.040659 0.0100281 0.0123955 0.0436734 
3942 2 -0.0429103 0.0430691 0.078496 0.0992868 
66 1 0.0434175 0.035212 0.0436354 0.0709155 
340 1 -0.0156211 -0.0286085 0.000499935 0.0325994 
138 1 -0.0255651 0.0146766 0.0164115 0.0337389 
879 1 0.0112462 0.00138847 -0.0559577 0.0570935 
3808 2 0.0484459 -0.00373237 0.00103023 0.0486004 
834 1 -0.0232092 0.0144438 0.0202091 0.0339956 
18 1 -0.0480734 -0.0492986 -0.0815863 0.10676 
3679 2 0.0129303 -0.0217022 -0.00841758 0.0266276 
52 1 0.0386823 -0.00661691 -0.0116697 0.0409425 
407 1 -0.0486247 -0.00848459 -0.0678355 0.0838928 
360 1 0.0462235 -0.0262268 -0.101428 0.114508 
2885 1 -0.0752393 -0.0580164 -0.0276439 0.0989497 
3526 2 -0.00427408 -0.129246 -0.0355903 0.134125 
310 1 -0.0626434 -0.0221368 0.0115212 0.0674313 
326 1 0.063587 -0.0109304 0.0404149 0.0761324 
227 1 -0.0114258 -0.0168282 -0.0126063 0.0239302 
2068 1 -0.06525 -0.0555927 -0.0963371 0.128953 
456 1 0.0132012 -0.00250852 0.0245971 0.0280283 
279 1 -0.0259868 0.0171055 0.0617889 0.0691794 
305 1 -0.0719131 0.0126594 -0.0224528 0.076393 
49 1 0.00767974 0.0548786 0.0383296 0.067378 
3512 2 -0.00155248 -0.0705911 0.0415986 0.081951 
11 1 -0.038285 -0.105369 0.00459576 0.112203 
189 1 -0.0197216 0.0633006 0.0601705 0.0895343 
2271 1 -0.0646551 -0.0259258 -0.0193909 0.0723079 
319 1 -0.0685504 -0.0378211 -0.010294 0.0789656 
3566 2 -0.0120303 0.0474122 -0.0377823 0.0618074 
71 1 -0.016965 0.0157747 0.00600015 0.0239301 
1560 1 -0.0214617 -0.0367023 0.0446609 0.0616625 
190 1 0.00273567 -0.0339231 0.0377721 0.0508428 
123 1 0.0532386 0.0164941 0.0459947 0.0722628 
27 1 -0.0359713 0.002322 -0.0286424 0.0460403 
162 1 -0.0149899 -0.00652357 -0.0805219 0.0821647 
255 1 -0.0693913 0.0139369 -0.0344968 0.0787364 
304 1 -0.0735707 0.00449058 -0.0363102 0.0821659 
321 1 0.000356651 -0.0665695 0.115946 0.133698 
682 1 -0.0346856 0.0348809 0.00199064 0.0492314 
3469 2 0.0689445 0.0614808 -0.0751504 0.119083 
3539 2 0.0307508 0.042128 0.0579603 0.0779729 
128 1 0.0568607 -0.0294088 -0.0320318 0.0715825 
3562 2 0.0877034 0.0290698 0.0464279 0.103405 
560 1 -0.0830738 -0.0458156 0.0131474 0.0957768 
212 1 -0.00665339 0.0307572 -0.00041922 0.0314714 
355 1 0.0134702 0.0555959 0.0981051 0.113565 
156 1 0.0668401 0.0405618 0.057357 0.0969675 
3620 2 -0.0118137 -0.0320327 -0.00066238 0.0341481 
1823 1 0.120608 -0.0963312 -0.072831 0.170676 
1805 1 -0.0047245 0.0678922 0.0757378 0.101823 
2599 1 -0.0222847 0.0137447 -0.00171311 0.0262385 
327 1 0.00546543 0.0116153 -0.00305046 0.0131944 
137 1 0.0498988 -0.00941222 0.0638333 0.081567 
2334 1 -0.0101049 0.0404277 0.0267396 0.0495128 
3698 2 0.0319078 -0.0662127 0.0184681 0.0757846 
555 1 0.00669981 -0.0360934 -0.0382216 0.0529954 
4178 2 0.0326571 -0.036113 0.0316931 0.0580955 
290 1 -0.00669194 0.0554791 -0.0192753 0.0591122 
284 1 -0.0253869 -0.0015937 -0.0515077 0.0574463 
3543 2 0.0242016 -0.00618534 0.0302671 0.0392438 
366 1 0.0255982 -0.041084 0.0189798 0.0519942 
55 1 -0.0268418 0.0268178 -0.00709216 0.0386002 
273 1 -0.0140569 -0.0614833 -6.62104e-05 0.0630698 
3468 2 0.044678 0.0215549 0.0230364 0.0546938 
316 1 0.0661777 -0.0375485 0.0947858 0.121547 
81 1 -0.0591943 0.0257977 0.0288331 0.0707166 
322 1 0.0280863 -0.00882897 -0.00638005 0.0301247 
239 1 -0.0259713 0.0209446 -0.0472121 0.0578115 
734 1 -0.051174 -0.0740576 -0.0318148 0.095475 
384 1 0.080534 -0.0347149 -0.0395776 0.0962145 
3476 2 -0.0102836 0.0764183 0.00600731 0.0773408 
311 1 0.0119418 -0.0337683 -0.061922 0.0715348 
3471 2 -0.0143541 0.0174255 0.00961983 0.0245404 
1938 1 0.0100128 -0.0492399 -0.0121192 0.0516885 
139 1 0.0998395 -0.0388668 -0.0116875 0.107774 
727 1 0.0394882 -0.0226785 0.0541628 0.0707619 
1885 1 0.00382759 0.0367293 -0.0649447 0.0747095 
2184 1 0.0679342 0.151884 -0.0932124 0.190715 
2494 1 -0.108444 -0.0625304 -0.105889 0.163959 
2091 1 -0.0379682 -0.0159934 -0.0415755 0.0585312 
281 1 0.0426645 0.0712629 0.0828665 0.117327 
863 1 0.0132692 0.086599 -0.00114355 0.0876172 
176 1 -0.0743623 0.0560854 -0.0351942 0.0995688 
3710 2 -0.00588985 0.0542231 -0.0296454 0.0620781 
3572 2 0.00480877 -0.0672398 -0.0335314 0.0752905 
4197 2 -0.0638609 0.0305476 -0.0158939 0.0725533 
343 1 -0.00495289 -0.033025 -0.0873011 0.0934701 
282 1 -0.00963829 -0.0303194 -0.00026696 0.0318156 
1038 1 -0.017455 0.0459294 0.0053595 0.0494258 
408 1 0.128485 0.0801913 -0.0266845 0.153789 
412 1 0.111393 -0.0473646 -0.00922589 0.121396 
820 1 0.0761662 0.00214619 0.0172317 0.0781206 
585 1 -0.0457374 -0.0379252 -0.0501619 0.0777589 
3609 2 0.035634 -0.0477978 0.00217964 0.0596587 
719 1 -0.0211504 0.0576181 -0.0186754 0.0641557 
608 1 0.00329267 -0.0141834 -0.00827747 0.0167489 
106 1 -0.0182775 0.0527542 0.0338652 0.0652988 
1047 1 -0.0913217 -0.0223098 -0.0104765 0.0945893 
3573 2 0.00310531 0.0204442 -0.0470386 0.0513832 
751 1 -0.0240079 -0.0155443 -0.0349337 0.0451483 
259 1 0.0499699 -0.0551324 0.0160641 0.0761224 
245 1 -0.0670102 -0.0110511 -0.0507872 0.0848047 
613 1 -0.0339237 -0.00318827 0.117007 0.121868 
4296 2 -0.0291251 0.033523 0.0207161 0.0490022 
272 1 -0.0801519 -0.0770534 -0.00734847 0.111425 
4239 2 -0.0140347 -0.0909607 -0.0433916 0.101753 
88 1 0.0513595 0.0774157 0.0560715 0.108513 
4 1 0.103027 -0.00978158 -0.0522715 0.115942 
361 1 0.0504979 0.0828955 -0.108453 0.145547 
358 1 -0.0241426 -0.0296548 -0.0252429 0.0458201 
194 1 -0.00446257 0.02737 -0.0608519 0.0668729 
2373 1 0.000600795 -0.0227403 -0.0621251 0.066159 
1982 1 0.00141841 -0.0218934 -0.0129486 0.0254754 
3953 2 -0.00906993 0.0141467 0.0360592 0.0397826 
414 1 0.0123091 0.0116381 -0.0314681 0.035738 
3186 1 0.0591244 -0.0688121 0.0257429 0.0943053 
177 1 0.0523299 -0.0163611 0.0735838 0.0917643 
1962 1 -0.0358875 0.0392668 0.0477764 0.0715009 
706 1 0.033503 -0.00862153 -0.0219874 0.0409905 
1544 1 -0.0225144 -0.0407056 0.00496684 0.0467815 
4160 2 -0.0209964 0.000188735 -0.00931133 0.0229692 
19 1 -0.0258415 -0.0392427 -0.0697562 0.0841053 
3624 2 0.00800041 -0.0162434 -0.0437111 0.0473129 
115 1 0.10369 -0.0658147 -0.00777551 0.123059 
1102 1 -0.0706239 0.00141669 -0.0118284 0.0716216 
1492 1 0.026703 0.0320449 0.0350734 0.0544983 
649 1 0.0497695 0.105938 -0.0476689 0.126381 
113 1 0.0312086 0.00440811 -0.00803511 0.0325265 
1150 1 0.0339098 -0.0147936 0.0416393 0.0557006 
620 1 -0.0684303 0.023921 0.0129098 0.0736314 
739 1 -0.070175 -0.0160754 0.0284859 0.0774235 
2412 1 0.00813963 0.058836 0.00113224 0.0594071 
3746 2 0.0636866 0.0204377 -0.114711 0.132786 
1225 1 0.0233042 0.0579511 0.0648338 0.0900269 
241 1 0.0629668 0.041789 -0.00965517 0.0761863 
83 1 0.0309037 0.0361842 -0.0217887 0.0523362 
1006 1 0.018557 0.00525726 -0.00613062 0.0202382 
4046 2 -0.0712893 -0.0428026 -0.0400229 0.0922825 
96 1 0.0313722 -0.0761381 -0.00967975 0.0829151 
411 1 0.0433356 0.0495886 0.0579703 0.0877358 
2454 1 -0.0318875 0.00330226 -0.0273317 0.0421277 
404 1 -0.048744 0.0396623 0.0571088 0.0849146 
226 1 0.0562201 -0.0184394 0.0681989 0.0902873 
534 1 0.0332028 -0.0100262 0.0889631 0.095485 
3538 2 0.0170091 0.032932 -0.00296369 0.0371835 
761 1 0.0564419 -0.00158001 0.0189694 0.0595653 
246 1 0.0828287 -0.0683591 0.0316371 0.111957 
2229 1 0.018507 -0.0629556 0.0245857 0.070074 
146 1 -0.00510399 0.0225226 -0.0390838 0.0453967 
3608 2 0.0585487 -0.0244568 -0.00604365 0.0637386 
503 1 -0.0353426 -0.00426278 0.0398916 0.053466 
505 1 0.0686626 -0.0228613 -0.00832255 0.0728454 
1430 1 -0.071734 -0.0287714 -0.00264801 0.0773342 
97 1 -0.00726084 0.0331693 -0.0427174 0.0545683 
1723 1 0.0290289 -0.0118204 -0.0711958 0.0777897 
3561 2 0.0231998 0.0814336 -0.0139703 0.0858186 
20 1 -0.0489635 -0.0730394 -0.0229634 0.0908818 
263 1 -0.0557218 0.0891288 0.0182671 0.106689 
817 1 0.068703 -0.0447437 0.0047498 0.0821259 
1034 1 0.0185674 0.0140605 0.014659 0.0275196 
353 1 0.0347283 -0.00600386 0.0651487 0.0740706 
1260 1 0.0462448 0.0696586 -0.0171409 0.0853505 
998 1 0.0145914 0.0338371 -0.0388662 0.0535578 
1932 1 0.0609327 -0.0938166 -0.00755819 0.112123 
36 1 0.0629886 -0.0762661 0.0314568 0.103796 
38 1 -0.0335012 -0.0213233 -0.0669142 0.0778109 
3130 1 0.00338089 0.0294935 -0.0344983 0.0455129 
1973 1 0.0651989 -0.0505808 0.110435 0.13786 
307 1 -0.0303383 -0.0547989 -0.0803502 0.10188 
2714 1 0.0848975 0.0365802 0.0146131 0.0935908 
28 1 0.0172993 0.00144899 -0.00260898 0.0175548 
1937 1 -0.00300313 0.00691226 -0.033231 0.0340749 
562 1 -0.0592954 -0.0807363 0.00126806 0.100179 
3011 1 -0.0619296 -0.0190624 0.0157305 0.0666791 
410 1 0.0771465 -0.0190855 0.0231452 0.082774 
693 1 0.0524413 0.0953001 0.0316041 0.113274 
367 1 -0.029053 0.00361742 -0.0077937 0.030297 
318 1 0.0898024 0.0257044 -0.0191092 0.0953433 
735 1 0.0645643 -0.0376791 0.0215771 0.0778064 
600 1 -0.0291107 0.0619307 0.0412307 0.0798925 
3590 2 -0.0650482 0.0344294 -0.0697779 0.101418 
3636 2 0.0373502 -0.0966447 0.0351378 0.109407 
26 1 -0.0511471 0.0579945 0.0438863 0.0889123 
1199 1 0.0430051 -0.0076038 -0.0398196 0.0591003 
614 1 -0.028768 -0.0347228 -0.00741663 0.0456977 
459 1 0.0552243 -0.0455301 -0.0444416 0.0842482 
3645 2 0.0563975 0.0800194 0.033132 0.103351 
574 1 0.0235502 0.0540379 -0.0254955 0.064224 
780 1 0.0716667 -0.0113681 -0.00961855 0.0731975 
161 1 -0.023685 0.0517198 -0.0415821 0.0704627 
309 1 0.0959378 0.040182 0.020678 0.106048 
365 1 -0.00412808 -0.0873457 -0.00517494 0.0875962 
191 1 -0.0433154 0.0612866 0.0102042 0.0757389 
1766 1 0.017324 0.0845951 -0.0448125 0.0972862 
2775 1 -0.0127416 -0.0770326 -0.0435804 0.0894183 
1030 1 0.0121194 -0.024522 0.0468607 0.0542598 
1505 1 0.0672089 0.0951312 0.0818196 0.142343 
3872 2 0.0061748 0.036893 -0.00363194 0.037582 
580 1 -0.0344284 -0.0446639 -0.0242493 0.0613857 
2054 1 -0.109607 -0.0494046 -0.0500093 0.130213 
2064 1 0.0485685 0.00366301 -0.0468263 0.067565 
529 1 0.00483554 0.0393648 -0.0608272 0.0726149 
402 1 -0.00379187 0.0429262 -0.0155861 0.0458253 
124 1 0.0143879 -0.056671 0.0135444 0.0600172 
744 1 0.0523484 0.0273212 -0.000895551 0.0590559 
185 1 0.0748899 -0.0415692 0.0947642 0.127737 
315 1 -0.0194947 -0.0446779 -0.0442627 0.0658433 
655 1 -0.0438491 0.00393775 0.0734717 0.0856524 
765 1 -0.0205606 0.0780767 0.0248744 0.0844834 
140 1 0.0273348 0.0508485 -0.0123154 0.0590291 
59 1 -0.0353238 -0.0255495 0.022896 0.049242 
54 1 0.00974982 0.00952785 0.0434855 0.0455722 
3506 2 0.0166098 0.0400063 -0.0313372 0.0534641 
666 1 -0.0499156 -0.0771703 0.0617353 0.110716 
43 1 0.0323715 0.109921 0.0493771 0.124774 
334 1 0.0126488 0.0303479 -0.00081703 0.0328885 
267 1 0.082278 0.0478275 0.0161581 0.096531 
99 1 0.05213 0.0215092 0.0791242 0.0971638 
1189 1 -0.0667279 -0.0483866 -0.09452 0.125411 
201 1 0.015417 -0.0550853 -0.0469896 0.0740277 
380 1 0.0333627 0.0761696 -0.103143 0.132489 
1777 1 0.0218033 -0.0144105 -0.0363552 0.0447744 
2597 1 0.173276 -0.0163706 -0.0563653 0.182947 
2484 1 0.101756 -0.0394131 -0.0802713 0.135466 
308 1 -0.0506923 -0.0261436 -0.0232995 0.0616123 
3918 2 -0.0279832 0.0434312 0.00458225 0.0518683 
89 1 -0.0506061 0.017653 -0.0329922 0.0629372 
300 1 -0.0067547 0.0266327 -0.00612886 0.0281512 
3582 2 0.0149352 0.0665382 0.0104731 0.0689934 
712 1 -0.0639393 0.0313867 0.0600977 0.0931938 
3836 2 -0.00630819 0.0222808 -0.048423 0.0536751 
268 1 0.0266325 0.00443798 -0.0181445 0.0325301 
788 1 0.0147853 0.0209631 -0.0861584 0.0898962 
4091 2 -0.00836587 0.0902621 0.0292593 0.0952541 
371 1 0.0457719 0.0255005 0.0319082 0.0613472 
3505 2 0.0080002 -0.0169137 0.0820974 0.0842024 
266 1 0.0136218 -0.0325334 -0.0217033 0.0414127 
3571 2 -0.0672539 0.0585329 0.0195445 0.0912753 
637 1 -0.0112215 0.00176528 -0.0358987 0.0376531 
157 1 0.0400201 -0.00145117 0.0106466 0.0414375 
257 1 0.019417 0.0401832 0.0373951 0.0582246 
571 1 -0.0463755 0.00493205 -0.04794 0.0668824 
665 1 -0.079271 0.0301079 0.10196 0.132613 
448 1 -0.0683027 -0.0270436 0.0157962 0.0751408 
827 1 0.0945213 0.0771734 -0.0122795 0.122641 
3475 2 -0.0124312 -0.0204623 0.0248655 0.0345186 
73 1 -0.0152167 0.0865705 -0.0104268 0.0885139 
373 1 0.0418442 -0.0457133 0.0496428 0.0794044 
247 1 0.0013237 -0.0139883 -0.0230535 0.0269979 
107 1 0.0402416 0.00975197 0.030405 0.0513707 
675 1 -0.00807893 0.0445345 -0.0882393 0.0991704 
434 1 -0.0147866 0.0473497 0.030538 0.0582512 
159 1 -0.0309478 0.00879965 -0.00953934 0.0335589 
32 1 0.0261613 0.0517132 0.00244706 0.0580057 
3579 2 0.0188294 -0.0665507 -0.0197988 0.0719412 
394 1 -0.0275984 0.00840352 0.0348943 0.0452758 
260 1 -0.0492032 0.00937307 0.0113837 0.0513653 
3972 2 -0.0298421 0.0155424 0.0903654 0.0964263 
1801 1 -0.0598126 0.00399977 0.0534254 0.0802983 
2122 1 -0.0162017 0.0184452 0.059234 0.0641201 
1966 1 0.0224033 -0.00811872 -0.0485821 0.0541114 
291 1 -0.00311609 0.00217372 0.0207485 0.0210934 
2047 1 0.055083 -0.000196319 0.0415275 0.0689834 
1899 1 -0.0237889 0.115665 0.0157408 0.119131 
622 1 -0.0587159 0.0141788 0.00955218 0.0611542 
1993 1 -0.0192489 0.00816281 -0.0142396 0.0252966 
62 1 0.0388474 0.0546185 0.0194824 0.0697987 
2187 1 0.0169631 -0.00748968 -0.0833519 0.0853896 
4318 2 0.0353918 -0.0433958 -0.00484896 0.0562075 
44 1 -0.0307115 -0.0505796 0.0431634 0.0732433 
824 1 -0.0199205 -0.0100279 0.0199623 0.0299312 
1282 1 -0.0301704 0.0132904 0.0789475 0.0855546 
3626 2 0.0345395 0.0364444 -0.0122779 0.0516906 
819 1 0.0321921 0.00980036 0.0475172 0.058226 
773 1 -0.0734541 -0.061052 0.0186921 0.0973255 
270 1 0.0433857 -0.0660758 0.0370686 0.0873065 
14 1 -0.0573762 0.0378423 -0.0533498 0.0870073 
3540 2 0.0371749 -0.0403368 -0.00933521 0.0556433 
997 1 0.0813539 -0.0028989 0.00325754 0.0814707 
4275 2 -0.0158307 -0.0585482 -0.0578459 0.0838132 
164 1 0.0420611 0.046853 0.114678 0.130826 
234 1 -0.0510357 -0.061145 0.0394493 0.0888797 
1125 1 -0.0004323 0.0675752 -0.054086 0.0865557 
3985 2 -0.0680749 -0.00617694 0.0795713 0.1049 
328 1 0.0204515 0.0144437 -0.037456 0.0450537 
3474 2 0.00707772 0.0179504 -0.0117081 0.0225697 
543 1 -0.0541382 -0.0285519 -0.00798853 0.061725 
293 1 0.0564126 -0.0323415 0.0178777 0.0674387 
3458 2 0.0445744 -0.0493679 0.0432216 0.0793232 
390 1 -0.0200603 -0.0476569 0.0198856 0.0553989 
3706 2 0.0995007 -0.0600987 -0.0515606 0.127164 
2169 1 0.0581782 0.038439 0.0156275 0.0714596 
1786 1 -0.0355775 0.0274604 -0.0641792 0.0783505 
1478 1 0.0220513 -0.0202733 0.0931819 0.0978781 
87 1 -0.0105478 -0.0293521 -0.010475 0.0329018 
4090 2 0.000174785 -0.050256 0.0465603 0.0685095 
142 1 -0.0214506 0.0223831 0.0547295 0.0629003 
1650 1 -0.0626981 -0.0354117 -0.0611599 0.0944752 
153 1 -0.00182185 0.0355221 0.0149295 0.038575 
374 1 0.0450506 -0.0187541 -0.00403901 0.0489652 
602 1 -0.00493133 -0.0320939 -0.0138419 0.0352978 
1277 1 -0.0466949 0.0120667 0.00621252 0.0486273 
76 1 -0.0437016 -0.0273222 0.0429226 0.0670722 
1370 1 0.0407574 -0.0374939 0.0840962 0.100693 
221 1 0.0100942 0.0107475 -0.0547059 0.0566581 
604 1 -0.000721008 0.0568873 0.067084 0.0879599 
1161 1 -0.0575354 -0.00513942 0.0372057 0.0687095 
1718 1 -0.0967886 0.00506599 -0.0645131 0.116429 
178 1 0.0452471 -0.102649 -0.00141873 0.112188 
295 1 -0.056762 -0.0394266 0.018242 0.0714783 
1472 1 -0.0495064 -0.0565217 0.0361726 0.0833909 
4159 2 -0.0135149 -0.0423399 -0.0310439 0.0542129 
3467 2 0.0837196 -0.00574104 0.0239061 0.087255 
3531 2 0.0398835 -0.0216175 0.0961293 0.106296 
2720 1 -0.10481 0.0500235 -0.029987 0.119945 
1851 1 0.0128461 0.0289682 5.61694e-05 0.0316888 
732 1 -0.0516697 -0.0735963 0.00780898 0.0902615 
4009 2 0.0377754 0.0821581 -0.0184443 0.0922883 
3878 2 0.0119873 0.0144205 -0.019965 0.0273906 
3185 1 -0.0790813 -0.0345611 0.0118064 0.0871075 
110 1 -0.057099 -0.0233071 0.020273 0.0649192 
2963 1 -0.0207765 -0.00139934 -0.0189588 0.0281613 
2608 1 -0.0314951 0.01057 -0.00199318 0.0332812 
3301 1 -0.00404504 -0.013255 0.00270142 0.0141193 
3759 2 -0.0204138 0.0256211 -0.0137158 0.0355146 
4171 2 -0.00530888 0.0222598 -0.00157987 0.0229386 
2118 1 -0.0117174 0.0218612 -0.058729 0.0637519 
1742 1 0.0635682 -0.0836212 0.0178644 0.106548 
642 1 0.0351289 -0.102794 0.0707677 0.129649 
3366 1 -0.0528491 0.00875771 0.0634931 0.0830728 
144 1 0.112297 0.0829921 0.0130343 0.140243 
681 1 0.0443235 -0.0437981 -0.057593 0.0848516 
1666 1 0.0889428 -0.0342549 -0.0340462 0.10121 
183 1 -0.082406 -0.0449526 -0.0207723 0.0961403 
694 1 -0.107138 0.0166772 0.0667898 0.127348 
444 1 -0.0141401 0.0637875 -0.071393 0.0967768 
869 1 -0.011963 -0.0900723 0.0705867 0.115059 
920 1 -0.0027213 -0.0653 -0.0397933 0.076518 
53 1 0.028626 0.00625018 0.0237025 0.0376872 
1450 1 -0.134663 -0.0555824 -0.00833779 0.145922 
1579 1 0.10456 -0.0577446 0.0591636 0.133295 
51 1 0.063077 0.0217206 0.0356381 0.0756344 
4187 2 -0.0700325 -0.0423594 -0.158806 0.178657 
1694 1 0.0024883 -0.0781927 0.046629 0.0910744 
1590 1 0.0137102 0.0328806 -0.0308018 0.0470941 
2005 1 -0.02729 0.00376792 0.117505 0.120691 
736 1 -0.0300701 -0.0135653 -0.0637591 0.0717875 
363 1 0.0248842 -0.00205601 0.0382113 0.045646 
230 1 0.0192701 0.0248991 0.162752 0.165769 
2538 1 -0.0108899 0.0203582 -0.067607 0.0714406 
357 1 -0.079578 0.00286904 0.0217234 0.0825396 
3849 2 0.0923014 -0.00900682 0.018223 0.0945132 
4102 2 0.0680814 -0.0885253 0.0393462 0.118406 
1032 1 0.0610257 -0.0237417 0.00745709 0.0659046 
78 1 -0.00759628 0.016379 -0.0176247 0.025231 
564 1 0.0796203 0.00859488 0.101024 0.128915 
797 1 0.11828 -0.036933 -0.0450879 0.13186 
1476 1 0.109058 -0.0309695 -0.0232785 0.115736 
872 1 -0.0648616 -0.0354577 -0.0404648 0.0842715 
475 1 -0.0353152 0.0133682 0.0191479 0.042338 
4119 2 0.0739216 -0.0571994 -0.0438224 0.103231 
576 1 -0.116804 0.0491591 0.061894 0.141034 
507 1 0.046969 -0.0159421 0.0252147 0.0556419 
248 1 0.0786424 -0.0477746 -0.0100884 0.0925679 
3597 2 -0.0448009 0.024927 0.0148159 0.0533665 
539 1 -0.00209975 0.0238886 0.0807683 0.0842532 
63 1 0.0635143 0.0146975 0.0195857 0.0680712 
57 1 -0.093143 0.00473461 -0.00769116 0.0935798 
854 1 -0.00101815 0.0301443 0.0108116 0.0320407 
668 1 0.108864 -0.0579503 -0.105151 0.162069 
385 1 -0.0944869 -0.11981 0.00762888 0.152775 
752 1 0.0341104 -0.0161973 -0.00893282 0.038803 
3650 2 0.0281007 0.0581975 0.0170799 0.0668455 
3736 2 -0.0758084 -0.0846626 -0.0607173 0.128846 
254 1 -0.0491434 -0.0735631 -0.0247926 0.0918764 
3637 2 -0.0128552 0.00350732 0.0691173 0.07039 
731 1 0.0562496 0.0195716 -0.0581514 0.0832385 
2304 1 0.0911963 -0.0369872 -0.0611237 0.115849 
610 1 -0.0554616 -0.0302872 -0.0837808 0.104941 