ITEM: TIMESTEP
38
ITEM: NUMBER OF ATOMS
4320
ITEM: BOX BOUNDS pp pp pp
0.0000000000000000e+00 1.9309999999999999e+01
0.0000000000000000e+00 1.9309999999999999e+01
0.0000000000000000e+00 9.6549999999999994e+00
ITEM: ATOMS id type c_displacement[1] c_displacement[2] c_displacement[3] c_displacement[4] 
4012 2 0.018336 -0.0655968 0.0078398 0.068561 
2361 1 -0.0232638 -0.0399731 -0.0472666 0.06613 
79 1 -0.0610285 -0.0737831 0.0307083 0.100556 
781 1 0.0564208 -0.0257995 0.0438009 0.0759436 
461 1 -0.00538409 -0.00360965 -0.0348366 0.0354346 
3704 2 -0.00621843 -0.0591851 0.0223264 0.0635611 
629 1 -0.0588645 0.0466532 0.0347075 0.0827415 
1571 1 0.00520076 0.00382706 -0.0278606 0.0285991 
58 1 0.105212 0.0321572 0.134789 0.173988 
2372 1 -0.0527001 -0.0440084 -0.0135981 0.0699925 
372 1 -0.00734262 -0.0134621 -0.0191716 0.0245497 
3504 2 -0.00473126 -0.0741491 0.0333635 0.0814469 
4130 2 -0.000288199 -0.0217004 -0.0572112 0.0611892 
1262 1 0.0416141 0.0890333 -0.0731034 0.122486 
907 1 -0.0799484 -0.0565 -0.129037 0.161971 
3659 2 0.0239484 0.160918 -0.0858817 0.183966 
1298 1 0.0747849 0.0467069 -0.0864718 0.123498 
1716 1 0.0130731 0.0903528 -0.0535203 0.105825 
1182 1 0.0165941 0.0115265 0.00563423 0.0209755 
683 1 -0.00792659 -0.0319094 0.0509843 0.0606666 
1958 1 0.0251561 -0.0678294 0.0566881 0.0919086 
1554 1 0.0133086 -0.0688097 -0.057177 0.0904494 
1037 1 -0.0267508 -0.160111 0.0186295 0.163396 
749 1 -0.0970319 -0.052315 0.0458318 0.119384 
3628 2 0.0570382 0.0499232 0.0247632 0.0797427 
946 1 -0.0340036 0.00196022 -0.056134 0.0656591 
2232 1 0.0198513 -0.0189701 -0.0842102 0.0885737 
7 1 0.0348211 0.0122514 0.0112758 0.0385973 
501 1 0.0148759 0.0889174 -0.0814099 0.121471 
179 1 -0.0236511 -0.0262804 -0.0974763 0.10369 
714 1 -0.0541736 -0.041141 0.114535 0.133213 
4166 2 0.00993283 -0.0533078 -0.0250394 0.0597274 
276 1 -0.0280403 0.0358277 0.0896614 0.100544 
767 1 -0.0630109 -0.0204714 0.0540341 0.0854935 
3890 2 -0.150099 -0.0401741 -0.0980554 0.183735 
6 1 0.00261585 0.100134 -0.0148814 0.101267 
2086 1 -0.0163326 0.000527142 0.0448087 0.0476954 
224 1 0.0189181 -0.0263389 0.00167008 0.0324719 
3660 2 0.0375159 0.0337827 0.0311217 0.0593067 
596 1 -0.0696198 -0.0107915 -0.0178597 0.0726797 
1214 1 0.00117101 -0.0549227 -0.0523072 0.0758546 
3686 2 0.0383935 0.0257216 0.0146979 0.0484943 
427 1 -0.0608989 0.0749284 0.078207 0.124255 
350 1 0.00961206 0.053858 0.00511487 0.0549476 
85 1 -0.0301605 -0.00364191 0.0053133 0.0308407 
598 1 -0.034709 -0.0263145 0.108269 0.116702 
3554 2 0.0110812 -0.0246706 -0.0302762 0.0405965 
29 1 -0.0362751 0.0594171 0.0376493 0.0791438 
464 1 -0.0272863 0.0277342 -0.0471941 0.0611638 
3619 2 -0.0337724 0.036955 0.075004 0.0901767 
12 1 0.0337914 -0.162851 0.0262379 0.168377 
364 1 -0.100212 0.0234387 -0.0689706 0.12389 
1849 1 -0.0831565 -0.0715054 -0.00103303 0.109677 
3663 2 -0.128593 0.046851 -0.0600938 0.149474 
3517 2 0.0323778 0.0104668 0.0839841 0.0906157 
25 1 0.129948 -0.0255687 -0.0337068 0.136662 
4163 2 0.000621969 0.0167334 -0.020428 0.0264139 
399 1 0.0100556 0.0136992 -0.0194284 0.0258117 
4265 2 -0.0419577 0.0595199 0.0251031 0.0770275 
527 1 0.0136427 -0.0161713 -0.032644 0.0389006 
200 1 0.0810405 0.0310709 0.0503564 0.100343 
1951 1 0.107511 0.0847021 0.0414808 0.143016 
644 1 0.0340188 -0.0434805 0.056218 0.0787927 
193 1 0.0167286 0.0832969 -0.00927757 0.0854652 
550 1 0.00209471 -0.0325435 -0.024759 0.0409447 
69 1 0.00812548 -0.0225487 0.0117404 0.026689 
842 1 -0.0722575 0.0362035 -0.0741667 0.109693 
578 1 -0.0358868 0.0205818 0.0050293 0.0416745 
172 1 -0.00471067 -0.0739539 0.02209 0.0773261 
381 1 -0.0073782 0.0485176 -0.0787539 0.0927931 
3524 2 0.05821 -0.0941414 0.119198 0.162663 
688 1 -0.0699044 0.083481 -0.0146273 0.109862 
3651 2 -0.0271401 0.0503437 0.0176751 0.0598622 
2367 1 0.0425285 0.0244983 -0.00493539 0.0493274 
1244 1 -0.0676395 0.0180374 0.0274246 0.0751835 
796 1 -0.0938531 0.0862322 -0.0310494 0.131181 
691 1 0.0540078 -0.0128342 0.0169837 0.0580517 
421 1 0.0264416 0.0283062 0.0981251 0.105494 
597 1 -0.0470525 0.0575984 -0.0165895 0.0762019 
3617 2 0.0160126 0.0131985 -0.051753 0.0557582 
120 1 0.0663175 0.0633539 0.0352032 0.0982394 
769 1 -0.0435937 0.00832364 0.051717 0.0681493 
2142 1 -0.00870023 0.0231748 -0.0218367 0.0330092 
3611 2 0.122679 0.0535112 0.112813 0.175044 
1915 1 -0.024241 0.0399592 0.0149806 0.0490793 
2140 1 -0.017099 0.00126867 0.0919219 0.0935073 
3828 2 0.0981536 0.0230467 0.0380298 0.107757 
3204 1 0.00628865 0.0743261 0.0316748 0.0810384 
175 1 0.0813675 0.0516981 -0.0353293 0.102672 
2011 1 0.0801325 0.0249925 -0.039982 0.0929753 
75 1 -0.0051531 0.0769297 0.0045604 0.0772369 
547 1 -0.0358074 -0.0111235 -0.059286 0.0701479 
4316 2 -0.0449273 0.0287722 -0.020034 0.0569882 
559 1 0.0344229 0.0425102 -0.0258001 0.060479 
717 1 0.0045326 0.0600897 -0.0368981 0.0706596 
242 1 0.00932342 -0.0266374 0.0578761 0.0643904 
3510 2 -0.0534739 0.02593 0.0618268 0.0857577 
130 1 0.0693963 -0.03964 0.103536 0.130793 
143 1 -0.0167079 0.0419328 -0.0587906 0.0741205 
202 1 -0.117589 -0.0422304 -0.0538118 0.136038 
182 1 -0.10957 0.0434455 -0.00937869 0.118241 
84 1 0.0352569 -0.0509475 -0.0514026 0.0805042 
3633 2 0.0192018 -0.0635203 0.0506267 0.0834662 
35 1 -0.120832 -0.0266231 0.100915 0.159665 
3612 2 0.023674 0.04048 -0.0743852 0.0879332 
40 1 0.12477 0.0785552 0.0620481 0.159964 
4005 2 0.0495286 -0.0719305 0.0225793 0.0902048 
718 1 -0.0341979 0.0173762 -0.0459201 0.0598338 
134 1 -0.0169147 -0.0297394 0.0684722 0.0765439 
511 1 -0.0401221 -0.0707232 0.0520875 0.0965642 
757 1 0.0553997 0.129535 -0.000298135 0.140885 
3555 2 -0.0598179 0.0382738 0.0267771 0.0758952 
3481 2 -0.0288255 0.00774227 -0.0367612 0.0473523 
135 1 0.0135513 -0.0478564 -0.0163236 0.0523482 
369 1 0.0308881 -0.0312804 0.10546 0.114256 
2148 1 -0.0722467 -0.0413733 -0.00616227 0.0834824 
3462 2 0.0404721 -0.0680112 -0.134379 0.155952 
1914 1 -0.0117699 0.0294381 0.0104935 0.0333953 
3661 2 0.0644779 -0.091229 0.0188372 0.113291 
1871 1 0.0185345 0.0242139 -0.034647 0.0461547 
320 1 -0.0373282 -0.0203251 -0.0377495 0.0568465 
582 1 -0.00475239 -0.095426 -0.0123562 0.0963399 
766 1 -0.0307208 0.0135118 0.00121274 0.0335828 
3552 2 -0.00866992 -0.0482793 0.013756 0.0509439 
2290 1 -0.0408074 0.0364303 0.0381453 0.0666894 
1794 1 0.0143512 0.0111002 0.0480463 0.0513577 
753 1 -0.0709207 0.0361783 0.0238397 0.083108 
396 1 -0.00600804 -0.0206601 0.0996686 0.101965 
496 1 -0.00565745 0.032836 -0.0773508 0.084222 
480 1 -0.0392756 -0.0502088 0.0665449 0.0921505 
253 1 0.0466101 0.000430197 -0.00208885 0.0466589 
4033 2 -0.00825487 0.0215483 -0.0416637 0.0476271 
347 1 -0.0584092 0.0223807 0.0290715 0.068976 
586 1 -0.0722609 0.0378695 -0.101239 0.13002 
3671 2 0.0877659 0.00955346 -0.0828291 0.121057 
37 1 -0.00847808 -0.0723438 0.0107438 0.073627 
782 1 0.0275425 -0.0915692 -0.0122156 0.0963988 
481 1 0.0539149 -0.004235 -0.0659944 0.085323 
392 1 -0.0493772 0.0401809 -0.0913915 0.111378 
333 1 0.0404539 -0.0452666 -0.019359 0.0637209 
342 1 -0.00603454 -0.00450995 -0.0338488 0.034677 
1179 1 -0.0096524 0.00450128 -0.0540936 0.0551321 
517 1 -0.00942778 -0.0605878 -0.0290168 0.0678361 
1824 1 0.0592146 -0.0396204 0.107505 0.128971 
34 1 0.0275881 0.0183265 0.0343314 0.0477033 
398 1 0.0010322 -0.0284403 -0.051857 0.0591529 
170 1 -0.0622643 -0.0542788 -0.0455596 0.094333 
235 1 0.0219945 -0.11548 0.0447486 0.125785 
3852 2 -0.0188559 -0.0350899 -0.0100155 0.041075 
816 1 0.0377252 -0.00826164 -0.0306748 0.0493192 
3931 2 -0.0952024 -0.0976959 0.106252 0.172909 
274 1 -0.0289115 -0.0419817 -0.0130314 0.0526133 
30 1 0.0178795 -0.00375628 -0.0264327 0.0321321 
2066 1 0.0662932 -0.0435579 0.102058 0.129259 
1082 1 0.0127868 -0.0398245 0.0506128 0.0656593 
1372 1 0.00552599 -0.0364275 0.0846436 0.0923149 
1265 1 0.0758936 -0.0268479 -0.0804425 0.113805 
601 1 0.0231711 0.0572691 0.0385844 0.0728382 
540 1 0.0136948 0.0175325 0.0218036 0.0311501 
589 1 -0.0377936 0.120338 0.0657474 0.142241 
958 1 0.0793857 -0.00069481 -0.0223538 0.0824759 
504 1 -0.0764076 0.0351179 -0.0152141 0.0854567 
1349 1 -0.0401166 0.0364326 -0.039882 0.0672849 
9 1 0.00660969 -0.0969152 0.032893 0.102558 
149 1 0.00627754 0.0659806 0.00165464 0.0662992 
163 1 0.0273811 -0.0709897 0.0038727 0.0761857 
4247 2 0.0119538 -0.0454402 -0.0522579 0.0702751 
1584 1 0.137907 -0.0125963 -0.0973466 0.169273 
3570 2 -0.026092 -0.0675391 0.00641724 0.0726877 
237 1 0.0186417 0.044667 0.0230453 0.0536072 
490 1 -0.0181231 -0.0542001 -0.00503279 0.057371 
50 1 -0.0459264 -0.0659478 0.0316323 0.0863652 
152 1 0.038696 0.0114069 -0.0196216 0.0448609 
3652 2 -0.00934349 -0.0207941 0.00210374 0.0228937 
3823 2 0.0138396 0.0756696 -0.089814 0.118254 
902 1 0.0297515 0.0596119 -0.020338 0.0696589 
3574 2 -0.0314541 0.050936 -0.0564587 0.0822886 
770 1 -0.0101209 -0.0596339 -0.0264659 0.0660233 
154 1 -0.00321015 -0.0231206 -0.0177145 0.0293031 
116 1 0.0816584 -0.0560448 0.031081 0.103803 
710 1 -0.0760341 -0.125823 -0.0561288 0.157362 
1956 1 -0.0105282 0.043176 -0.0579749 0.0730486 
1810 1 -0.105986 -0.0361595 0.0800712 0.137666 
2072 1 -0.0416098 -0.026628 -0.0108125 0.0505701 
1649 1 -0.0266316 0.00973074 -0.0428676 0.0513961 
186 1 -0.040984 -0.00398981 0.0756438 0.0861255 
1063 1 -0.0347972 0.0582552 -0.155813 0.169948 
432 1 -0.0897527 0.0732538 -0.09996 0.153015 
2495 1 -0.0779288 -0.0994641 0.0720841 0.145472 
3896 2 0.00555921 -0.0112645 -0.0480557 0.0496704 
1071 1 -0.0142922 -0.0353228 -0.0459171 0.0596687 
913 1 0.0557559 -0.0657002 0.0336038 0.0924903 
1068 1 0.033126 0.0211248 -0.00543437 0.0396626 
265 1 -0.0632351 0.0165442 -0.0295218 0.0717211 
1287 1 0.0223204 0.102944 0.00767158 0.105615 
3799 2 0.0414454 -0.0468107 -0.0928053 0.111901 
554 1 0.0380018 -0.0488928 -0.0653845 0.0900543 
1414 1 -0.0242076 0.0388442 -0.0723326 0.0855972 
213 1 0.000616408 -0.0281282 0.0107432 0.0301163 
341 1 -0.0623845 -0.0357299 -0.0352542 0.0800706 
3682 2 -0.0398332 0.0193053 -0.0463641 0.0641016 
754 1 -0.0566476 0.0860125 -0.000417572 0.102992 
112 1 -0.0632556 0.0440566 0.00510844 0.0772551 
1041 1 -0.0204641 -0.0702304 0.0258286 0.0775771 
119 1 0.00808227 0.000898941 0.0736087 0.0740565 
415 1 0.00258483 0.0485024 -0.0397889 0.0627879 
995 1 -0.0520047 0.0382377 0.0224675 0.0683476 
4128 2 -0.02184 -0.0392194 0.116507 0.124856 
8 1 0.0566295 0.0579732 -0.00211667 0.0810696 
94 1 0.00950462 -0.0649186 -2.89079e-05 0.0656107 
48 1 0.0237344 0.0249241 0.0119388 0.036429 
3998 2 0.015959 0.0377118 0.0523141 0.0664351 
3866 2 0.0481421 0.0284262 -0.0140474 0.0576458 
2206 1 0.0200531 -0.00680233 -0.0189809 0.0284371 
3490 2 -0.081461 0.000866219 -0.0126344 0.0824395 
3072 1 -0.00169733 -0.0501079 0.0519855 0.0722231 
3002 1 0.0775588 0.0588231 0.0347895 0.103372 
92 1 0.0265321 0.0898356 0.0952428 0.133587 
335 1 -0.043513 0.0715196 -0.0486908 0.0968464 
4034 2 -0.141433 -0.128223 0.0414428 0.195351 
1186 1 0.0206367 0.00302743 0.00687277 0.0219607 
1114 1 0.0709033 0.0348653 0.0294468 0.0843207 
1821 1 -0.0279973 -0.0555308 -0.0598712 0.0863255 
1922 1 0.0135748 -0.0813047 0.0202022 0.0848696 
451 1 -0.0849849 -0.0490592 -0.00327844 0.0981834 
3960 2 0.00331663 -0.03172 0.0188816 0.0370631 
100 1 -0.0251995 0.0467403 -0.0668728 0.0853911 
1180 1 -0.00167367 -0.0463314 -0.0692439 0.0833314 
165 1 0.0668871 -0.0220034 -0.00301535 0.0704778 
388 1 -0.0674285 -0.0577202 -0.0356407 0.0956477 
3742 2 0.0767141 -0.0418907 0.0293337 0.0921973 
323 1 -0.0962183 0.115092 -0.0711195 0.166018 
288 1 -0.050612 0.0126596 0.00962015 0.0530508 
3942 2 -0.0534228 0.0500157 0.0873517 0.113956 
66 1 0.0539692 0.0351922 0.050566 0.0819029 
340 1 -0.0130681 -0.0108339 -0.0118006 0.0206737 
138 1 -0.024429 0.00354585 0.0167099 0.0298089 
879 1 0.00982048 -0.00442239 -0.066367 0.0672353 
3808 2 0.0594576 0.0166082 -0.00528446 0.0619594 
834 1 -0.0159565 0.0177994 0.0204001 0.031426 
18 1 -0.0597245 -0.0558538 -0.0910448 0.122376 
3679 2 0.0223152 -0.0261565 -0.01598 0.0379143 
52 1 0.0517158 -0.0177754 -0.0115853 0.0558991 
407 1 -0.0341811 -0.0085123 -0.0704468 0.0787626 
360 1 0.0516886 -0.0386731 -0.103603 0.122069 
2885 1 -0.0925485 -0.0617252 -0.0257414 0.114183 
3526 2 -0.00815894 -0.158417 -0.0450268 0.164893 
310 1 -0.0680517 -0.0300197 0.00719983 0.0747265 
326 1 0.083422 -0.00874819 0.0482549 0.0967693 
227 1 -0.013831 -0.0243734 -0.0185049 0.0335826 
2068 1 -0.0893554 -0.0492961 -0.0956837 0.139892 
456 1 0.0206463 -0.00498789 0.0292013 0.0361091 
279 1 -0.0250864 0.0192801 0.0763805 0.0826742 
305 1 -0.0626614 0.0192859 -0.0326865 0.0732585 
49 1 0.00468635 0.0724828 0.0475718 0.0868262 
3512 2 0.00285204 -0.0805832 0.0430053 0.0913852 
11 1 -0.0515269 -0.132782 0.0140622 0.143122 
189 1 -0.033183 0.0791121 0.0647035 0.107454 
2271 1 -0.0860023 -0.0282496 -0.0168713 0.0920819 
319 1 -0.0776618 -0.0456232 -0.00854807 0.090476 
3566 2 -0.00290856 0.0571649 -0.0481506 0.0747982 
71 1 -0.00419742 0.0153497 0.0154369 0.0221705 
1560 1 -0.0223094 -0.0389442 0.0468413 0.0648727 
190 1 -0.00621589 -0.0325459 0.053606 0.0630197 
123 1 0.0622544 0.0152302 0.0574457 0.0860672 
27 1 -0.0390277 0.00196162 -0.0314941 0.0501885 
162 1 -0.0155267 -0.00477133 -0.0916438 0.0930722 
255 1 -0.080822 0.013062 -0.0352947 0.0891546 
304 1 -0.0807672 0.00146071 -0.0425911 0.0913207 
321 1 0.00233755 -0.0699721 0.130647 0.148223 
682 1 -0.0425915 0.0391269 0.00321824 0.0579251 
3469 2 0.0671779 0.0581554 -0.0829868 0.12158 
3539 2 0.029964 0.0395728 0.0751679 0.0900781 
128 1 0.0600863 -0.0357733 -0.0461609 0.083791 
3562 2 0.096734 0.0293466 0.063796 0.119535 
560 1 -0.102948 -0.0504684 0.00659893 0.114842 
212 1 -0.0248411 0.0389127 -0.0130021 0.0479618 
355 1 0.0181873 0.0612618 0.104665 0.122632 
156 1 0.0603349 0.0543541 0.0642574 0.103555 
3620 2 -0.00283684 -0.0430415 -0.00683128 0.0436724 
1823 1 0.14422 -0.108874 -0.082908 0.198813 
1805 1 -0.0210211 0.0725177 0.0843761 0.113226 
2599 1 -0.0390082 0.0111556 0.0124652 0.0424437 
327 1 0.0219481 0.0086405 0.00293403 0.0237695 
137 1 0.0550928 -0.00226674 0.0597919 0.0813353 
2334 1 -0.0104997 0.0440675 0.0345976 0.0570016 
3698 2 0.0358783 -0.0702799 0.0169676 0.080712 
555 1 -0.0028553 -0.0425808 -0.0463904 0.0630345 
4178 2 0.0307327 -0.0545368 0.0401016 0.0743431 
290 1 -0.00901717 0.0556431 -0.016824 0.0588261 
284 1 -0.0157754 0.00639161 -0.0543392 0.0569426 
3543 2 0.011573 -0.00974882 0.0354648 0.0385581 
366 1 0.0293622 -0.0438835 0.0334155 0.062486 
55 1 -0.0259548 0.0349489 -0.0104557 0.0447705 
273 1 -0.0177053 -0.0683467 -0.00680437 0.0709299 
3468 2 0.0555349 0.0200722 0.0341283 0.0682038 
316 1 0.0852792 -0.0295484 0.10254 0.136602 
81 1 -0.0620471 0.0196379 0.0242138 0.0694392 
322 1 0.0319156 -0.0186256 0.003341 0.0371036 
239 1 -0.0243754 0.0219865 -0.0548776 0.0639462 
734 1 -0.0463153 -0.0788151 -0.0383419 0.0991314 
384 1 0.0903313 -0.045797 -0.0553562 0.115418 
3476 2 -0.00657426 0.0883731 0.00679813 0.0888777 
311 1 -0.00210854 -0.0385013 -0.0726733 0.0822691 
3471 2 -0.00480856 0.0230396 0.0218325 0.032103 
1938 1 0.0226296 -0.0586781 -0.00964493 0.0636258 
139 1 0.119172 -0.0420867 -0.00981326 0.126766 
727 1 0.0546677 -0.0321814 0.0579567 0.0859254 
1885 1 0.00171152 0.0352446 -0.0692099 0.077686 
2184 1 0.0933967 0.16185 -0.0970584 0.210568 
2494 1 -0.130966 -0.0632225 -0.128909 0.194337 
2091 1 -0.0374879 -0.0107305 -0.0519564 0.0649612 
281 1 0.0415696 0.0883077 0.0975348 0.137983 
863 1 0.0178964 0.0873425 -0.0169026 0.0907452 
176 1 -0.0776886 0.0624378 -0.039316 0.107144 
3710 2 -0.00631876 0.0613956 -0.0372796 0.0721049 
3572 2 0.00280488 -0.0810938 -0.0498053 0.0952085 
4197 2 -0.0712101 0.0436681 -0.029004 0.0884252 
343 1 -0.0132879 -0.0372121 -0.0998994 0.10743 
282 1 -0.0189851 -0.03608 -0.00829088 0.0416046 
1038 1 -0.0179793 0.0621012 0.0157969 0.0665534 
408 1 0.148192 0.0719618 -0.0259972 0.166779 
412 1 0.128277 -0.0531575 -0.0122417 0.139394 
820 1 0.0942756 0.00607296 0.029604 0.0990008 
585 1 -0.0593972 -0.0406468 -0.0637626 0.0961554 
3609 2 0.041402 -0.0654574 0.00669495 0.0777407 
719 1 -0.0184066 0.0652125 -0.0226579 0.0714483 
608 1 0.00468263 0.00317406 -0.00117638 0.00577802 
106 1 -0.018274 0.0569962 0.0444095 0.0745299 
1047 1 -0.103487 -0.0277624 -0.0168312 0.10846 
3573 2 0.00592327 0.0260786 -0.0569596 0.0629252 
751 1 -0.0202004 -0.0175613 -0.050252 0.0569361 
259 1 0.0579023 -0.0546293 0.0151913 0.081042 
245 1 -0.0755076 -0.0193489 -0.0477511 0.0914108 
613 1 -0.0407452 -0.0119643 0.12572 0.132698 
4296 2 -0.0309323 0.0404943 0.0235032 0.0561159 
272 1 -0.0946891 -0.0904613 -0.0132459 0.131623 
4239 2 -0.0257099 -0.103328 -0.0528926 0.118892 
88 1 0.0628909 0.0866388 0.0696893 0.127743 
4 1 0.103775 -0.011347 -0.061693 0.12126 
361 1 0.0625455 0.0937954 -0.1238 0.167439 
358 1 -0.0346653 -0.0319355 -0.03818 0.060657 
194 1 -0.0013065 0.0324734 -0.0704993 0.0776298 
2373 1 0.0067738 -0.0162478 -0.0806649 0.0825633 
1982 1 0.00876435 -0.0168016 0.00475714 0.0195381 
3953 2 -0.00454167 0.0167929 0.0517969 0.0546402 
414 1 0.0160225 0.0148453 -0.0412612 0.0466861 
3186 1 0.0725303 -0.0789398 0.0217548 0.109386 
177 1 0.0554071 -0.0243965 0.0714344 0.0936376 
1962 1 -0.0392003 0.0461443 0.0644483 0.0884282 
706 1 0.0307832 -0.00682171 -0.0307083 0.044013 
1544 1 -0.0189301 -0.0575209 0.01989 0.0637387 
4160 2 -0.0277791 0.00505099 -0.0136545 0.0313629 
19 1 -0.0339485 -0.026044 -0.0819701 0.0924656 
3624 2 0.003821 -0.0148981 -0.0523007 0.0545153 
115 1 0.108878 -0.0712479 -0.0153163 0.131016 
1102 1 -0.0743424 -0.00677602 -0.00552522 0.0748548 
1492 1 0.0241384 0.0527658 0.0294812 0.0650848 
649 1 0.0498537 0.113544 -0.0484872 0.133149 
113 1 0.0423543 -0.00727342 -0.00926174 0.043961 
1150 1 0.029575 -0.0124269 0.0491616 0.0587024 
620 1 -0.0564787 0.00991652 0.00332005 0.0574387 
739 1 -0.0849656 -0.0209043 0.0286943 0.0920842 
2412 1 0.011821 0.0564014 -0.00389308 0.0577582 
3746 2 0.0739839 0.025826 -0.134394 0.155571 
1225 1 0.0182011 0.0621018 0.0749477 0.0990206 
241 1 0.0776047 0.0339699 -0.00650541 0.0849633 
83 1 0.0317152 0.029644 -0.0227692 0.049021 
1006 1 0.0252796 0.00569184 -0.0053508 0.0264591 
4046 2 -0.065481 -0.0668176 -0.0404811 0.101937 
96 1 0.0261527 -0.0917092 -0.00514852 0.0955042 
411 1 0.0528669 0.056396 0.0711068 0.105031 
2454 1 -0.0471122 0.00869103 -0.0174049 0.0509708 
404 1 -0.0638637 0.04946 0.0642341 0.103203 
226 1 0.0565609 -0.0200491 0.073324 0.0947498 
534 1 0.0363376 -0.0143165 0.103016 0.110171 
3538 2 0.010453 0.0371216 -0.0169024 0.0421067 
761 1 0.0625356 -0.0110563 0.0285971 0.0696472 
246 1 0.0877874 -0.0723751 0.0305096 0.117795 
2229 1 0.0122985 -0.0839679 0.0210618 0.0874384 
146 1 -0.00519577 0.00736111 -0.0478301 0.0486714 
3608 2 0.0672727 -0.0188349 -0.00148114 0.0698754 
503 1 -0.0375231 -0.00287464 0.0423612 0.0566632 
505 1 0.0851138 -0.0291847 -0.00148481 0.0899907 
1430 1 -0.0827281 -0.0326775 -0.00993276 0.0895009 
97 1 -0.0142367 0.0357954 -0.058393 0.0699552 
1723 1 0.0323888 -0.00424749 -0.078489 0.0850152 
3561 2 0.0357261 0.100847 -0.0219509 0.109217 
20 1 -0.0576488 -0.0756171 -0.0176814 0.0967159 
263 1 -0.0586637 0.109884 0.0126654 0.125205 
817 1 0.0795232 -0.0525594 0.0104646 0.0958954 
1034 1 0.0220805 0.0163267 0.0159978 0.0317811 
353 1 0.0377712 -0.00343487 0.0900889 0.097747 
1260 1 0.0518028 0.0857942 -0.0194234 0.102085 
998 1 0.0187772 0.0451661 -0.0450292 0.0664845 
1932 1 0.07367 -0.115196 -0.0147717 0.137534 
36 1 0.0778441 -0.0947558 0.0213946 0.124483 
38 1 -0.0240685 -0.0142293 -0.0747078 0.0797685 
3130 1 -0.00572716 0.0208286 -0.0413256 0.0466308 
1973 1 0.0731282 -0.043913 0.124463 0.150888 
307 1 -0.0193919 -0.0583686 -0.0790844 0.100186 
2714 1 0.0879222 0.0387725 0.0164627 0.0974917 
28 1 0.0321075 0.00984086 0.00340651 0.0337541 
1937 1 -0.00201259 0.0146903 -0.0383072 0.0410767 
562 1 -0.0676779 -0.0952884 0.00341156 0.116927 
3011 1 -0.0625196 -0.0146072 0.0122468 0.0653609 
410 1 0.0827648 -0.0276376 0.0268914 0.0913072 
693 1 0.0598055 0.102576 0.0564274 0.131463 
367 1 -0.0281892 0.00408881 -0.00541158 0.0289937 
318 1 0.0869806 0.0295133 -0.0343286 0.0980567 
735 1 0.0798041 -0.0358147 0.019768 0.0896781 
600 1 -0.0267833 0.0685774 0.0375385 0.0826398 
3590 2 -0.0616674 0.0414881 -0.0562072 0.0931847 
3636 2 0.0409095 -0.10086 0.0438063 0.117326 
26 1 -0.0679326 0.0632656 0.0513234 0.106073 
1199 1 0.0432307 -0.00110264 -0.0533328 0.0686622 
614 1 -0.0324976 -0.0373251 -0.0084061 0.0501988 
459 1 0.0510376 -0.0619111 -0.0516559 0.0954262 
3645 2 0.0643987 0.0925615 0.0412454 0.120067 
574 1 0.031368 0.0473805 -0.0109475 0.0578681 
780 1 0.0839206 -0.0108365 -0.00857179 0.0850504 
161 1 -0.0455177 0.0407471 -0.0346428 0.0702304 
309 1 0.108775 0.0508778 0.0216646 0.122024 
365 1 0.00315029 -0.111381 -0.0193352 0.11309 
191 1 -0.0519581 0.0654945 0.0138775 0.0847453 
1766 1 0.00270998 0.0807129 -0.0466982 0.0932879 
2775 1 0.0027473 -0.0816708 -0.0530909 0.097449 
1030 1 0.0351961 -0.0358606 0.0420834 0.0655421 
1505 1 0.0871829 0.112054 0.0959679 0.171367 
3872 2 0.0067507 0.0382459 -0.00437147 0.0390824 
580 1 -0.0372513 -0.0450626 -0.0190881 0.0615032 
2054 1 -0.113238 -0.0573652 -0.0550975 0.138381 
2064 1 0.0661489 0.00513707 -0.0540405 0.0855713 
529 1 -0.000134302 0.0456229 -0.0712072 0.0845691 
402 1 -0.00910833 0.0466663 -0.0032168 0.0476555 
124 1 0.0103145 -0.0704262 0.0252668 0.0755291 
744 1 0.0710067 0.020462 0.00552129 0.0741022 
185 1 0.0806084 -0.0430056 0.0993873 0.135 
315 1 -0.0267229 -0.0478032 -0.0466083 0.0719138 
655 1 -0.0432964 -0.0065314 0.0949476 0.104558 
765 1 -0.020446 0.0796142 0.0253196 0.086009 
140 1 0.031214 0.0611115 -0.0326342 0.0759864 
59 1 -0.0405104 -0.0229178 0.0302849 0.0555291 
54 1 0.00802941 0.00790705 0.0307886 0.0327861 
3506 2 0.00617059 0.0582877 -0.0453688 0.0741206 
666 1 -0.0521071 -0.093531 0.0713741 0.128676 
43 1 0.0459683 0.111052 0.0601592 0.134405 
334 1 0.00505871 0.021047 -0.000987112 0.0216689 
267 1 0.103644 0.0481164 0.00296546 0.114306 
99 1 0.0552043 0.0449262 0.0840903 0.110168 
1189 1 -0.0747621 -0.0493327 -0.1125 0.143803 
201 1 0.00770201 -0.0705094 -0.0521182 0.0880182 
380 1 0.0319118 0.0933246 -0.125001 0.159226 
1777 1 0.0206533 -0.015418 -0.0398076 0.0474227 
2597 1 0.20382 -0.0220025 -0.0539276 0.211978 
2484 1 0.11086 -0.0504484 -0.0902328 0.151582 
308 1 -0.0481542 -0.0249073 -0.0253297 0.0598397 
3918 2 -0.0334547 0.0542146 0.0170449 0.0659467 
89 1 -0.0605013 0.0367876 -0.0341623 0.0786181 
300 1 -0.00770243 0.0236119 -0.00437676 0.0252191 
3582 2 0.0161876 0.0575572 0.0143726 0.0614934 
712 1 -0.0735716 0.0384574 0.0653741 0.105667 
3836 2 -0.00947618 0.0290308 -0.0574261 0.0650411 
268 1 0.0230213 -0.00131571 -0.0144155 0.0271941 
788 1 0.0068164 0.0402017 -0.0958938 0.104203 
4091 2 -0.00361679 0.112618 0.016754 0.113914 
371 1 0.0470414 0.0452361 0.0566618 0.0864278 
3505 2 0.0131973 -0.0175855 0.0861394 0.0889012 
266 1 0.0329318 -0.046666 -0.0315185 0.0652353 
3571 2 -0.0583675 0.0389066 0.035938 0.0788164 
637 1 -0.00859253 7.76251e-05 -0.0526888 0.0533849 
157 1 0.0165523 0.00157314 0.0217567 0.0273826 
257 1 0.0264305 0.0377358 0.0279705 0.0538973 
571 1 -0.0457531 0.0136207 -0.0465726 0.0666924 
665 1 -0.101075 0.0206221 0.1252 0.162224 
448 1 -0.0757681 -0.0391562 0.0207645 0.0877792 
827 1 0.099155 0.0898447 -0.0116687 0.134313 
3475 2 -0.00188602 -0.015099 0.0307788 0.0343347 
73 1 -0.0193913 0.0928399 -0.00691993 0.0950955 
373 1 0.0581149 -0.0410025 0.0622656 0.094528 
247 1 0.00719938 -0.0204122 -0.0326696 0.0391892 
107 1 0.0489795 0.013192 0.0229067 0.0556573 
675 1 -0.018439 0.0547631 -0.0973556 0.113213 
434 1 -0.0192974 0.0533069 0.0310682 0.0646471 
159 1 -0.045435 0.0169029 -0.0114213 0.0498046 
32 1 0.0389007 0.0638436 0.00640921 0.0750357 
3579 2 0.0325089 -0.0698963 -0.0293993 0.0825024 
394 1 -0.0308803 0.0126527 0.0425818 0.0541008 
260 1 -0.0488666 0.0197701 0.0115125 0.0539569 
3972 2 -0.0375982 0.0210354 0.096033 0.105254 
1801 1 -0.0645762 0.0108928 0.0608973 0.0894272 
2122 1 -0.0222273 0.0113127 0.0780123 0.081902 
1966 1 0.0160281 -0.0233936 -0.0585531 0.0650586 
291 1 -0.00473241 0.00864405 0.0214942 0.0236456 
2047 1 0.0638896 0.00419014 0.0529954 0.0831141 
1899 1 -0.0156939 0.109775 0.0142048 0.111797 
622 1 -0.0608938 0.0239176 0.00908874 0.0660508 
1993 1 -0.0227121 0.00348232 -0.0179359 0.029149 
62 1 0.0370759 0.0651316 0.0297309 0.0806268 
2187 1 0.00495863 -0.0128956 -0.0938367 0.0948484 
4318 2 0.0439224 -0.0417809 -0.00433355 0.060775 
44 1 -0.0275251 -0.0485618 0.0546372 0.0781095 
824 1 -0.00900557 -0.0102956 0.0296971 0.0326958 
1282 1 -0.0260294 0.0176285 0.0904367 0.0957449 
3626 2 0.050616 0.0467993 -0.0158642 0.0707377 
819 1 0.0330591 0.0212963 0.0661051 0.0769176 
773 1 -0.0896963 -0.0791584 0.0243192 0.122077 
270 1 0.0355382 -0.0690888 0.0295546 0.0831246 
14 1 -0.0662288 0.028589 -0.0575058 0.0922523 
3540 2 0.0435366 -0.032165 -0.0122214 0.0554922 
997 1 0.0917594 -0.0191555 -0.00621468 0.0939433 
4275 2 -0.0204484 -0.0641158 -0.0735138 0.0996657 
164 1 0.052209 0.0527176 0.130178 0.149838 
234 1 -0.0422922 -0.065149 0.051863 0.0933959 
1125 1 -0.00250173 0.0648612 -0.0621951 0.089897 
3985 2 -0.0752358 -0.00624682 0.0886924 0.116472 
328 1 0.0265333 0.0181117 -0.0411531 0.0522075 
3474 2 0.0067436 0.0157591 -0.0193808 0.0258736 
543 1 -0.0668372 -0.0221912 -0.0116539 0.0713826 
293 1 0.0722672 -0.0404725 0.0285566 0.0876131 
3458 2 0.0537428 -0.0516291 0.0559141 0.0931678 
390 1 -0.0192659 -0.0474587 0.00706263 0.0517048 
3706 2 0.102948 -0.0892495 -0.0538641 0.14651 
2169 1 0.0683901 0.0596131 0.0108112 0.0913663 
1786 1 -0.0303655 0.0240996 -0.0749628 0.0843936 
1478 1 0.0167517 -0.0155376 0.114985 0.117233 
87 1 -0.00113597 -0.0284027 -0.0167536 0.0329952 
4090 2 0.00190236 -0.0527042 0.0446172 0.06908 
142 1 -0.020433 0.0263759 0.0561254 0.0652936 
1650 1 -0.0709429 -0.048051 -0.0698607 0.110555 
153 1 0.000221164 0.0397021 0.0130925 0.0418057 
374 1 0.0579666 -0.0138253 -0.0173513 0.0620672 
602 1 6.94421e-05 -0.0461591 -0.0256967 0.0528298 
1277 1 -0.0515023 0.0164655 0.00894869 0.0548058 
76 1 -0.0344709 -0.0372205 0.0595611 0.0782377 
1370 1 0.0496613 -0.0373286 0.0936704 0.1124 
221 1 0.00182504 0.0312207 -0.0504225 0.0593338 
604 1 -0.00354266 0.0605408 0.0814679 0.101562 
1161 1 -0.0677685 -0.0138346 0.025111 0.0735835 
1718 1 -0.11433 0.0111612 -0.0854671 0.14318 
178 1 0.0393849 -0.131337 -0.00296105 0.137147 
295 1 -0.0742645 -0.0449169 0.0219985 0.0895359 
1472 1 -0.0573534 -0.0549349 0.03488 0.0867402 
4159 2 -0.013185 -0.0433307 -0.0334448 0.0563023 
3467 2 0.0961552 -0.00803455 0.0261037 0.0999589 
3531 2 0.0292258 -0.0338802 0.106183 0.115225 
2720 1 -0.104597 0.0628486 -0.0418953 0.129019 
1851 1 0.00684793 0.024662 -0.000950865 0.0256128 
732 1 -0.0514942 -0.0861025 0.0111237 0.100941 
4009 2 0.0264367 0.0992193 -0.0182064 0.104282 
3878 2 0.0175421 0.0195911 -0.0235856 0.0353245 
3185 1 -0.110378 -0.041065 0.0207095 0.119577 
110 1 -0.0531458 -0.0263071 0.0260427 0.064767 
2963 1 -0.0267189 -0.00671028 -0.0258353 0.0377676 
2608 1 -0.0379606 0.0120406 -0.0114552 0.0414392 
3301 1 -0.00363559 -0.00626632 0.0147594 0.0164416 
3759 2 -0.0235457 0.0127078 -0.0155943 0.0309688 
4171 2 -0.0163234 0.0234845 -0.00225556 0.028689 
2118 1 -0.00543796 0.0426531 -0.0506807 0.0664634 
1742 1 0.0643017 -0.0828732 0.0205369 0.106885 
642 1 0.0343499 -0.123658 0.0750272 0.148661 
3366 1 -0.0503922 0.00985203 0.0780956 0.0934632 
144 1 0.130069 0.11055 0.0166191 0.171509 
681 1 0.0503637 -0.0480101 -0.0734284 0.101159 
1666 1 0.0995967 -0.0426974 -0.0335791 0.113447 
183 1 -0.0964568 -0.0572115 -0.0269599 0.115343 
694 1 -0.128865 0.0158668 0.0721704 0.148548 
444 1 -0.0199601 0.0641161 -0.0886569 0.111218 
869 1 -0.020631 -0.105607 0.0869088 0.138317 
920 1 -0.00190207 -0.0790027 -0.0453283 0.0911027 
53 1 0.0337304 0.00491593 0.0282627 0.0442797 
1450 1 -0.15681 -0.0566535 -0.0248533 0.168573 
1579 1 0.116141 -0.0728677 0.0655629 0.151976 
51 1 0.0803575 0.0291315 0.0303397 0.0906999 
4187 2 -0.0857016 -0.0534264 -0.174551 0.201661 
1694 1 -0.00395917 -0.0918952 0.0706586 0.115987 
1590 1 0.0190011 0.0300312 -0.0443329 0.0568183 
2005 1 -0.0271862 0.00104839 0.123621 0.126579 
736 1 -0.0414695 -0.0111574 -0.0628535 0.0761234 
363 1 0.0377752 -0.00183773 0.0397006 0.0548313 
230 1 0.023646 0.0317149 0.173865 0.178309 
2538 1 -0.00272974 0.0141613 -0.0724292 0.0738511 
357 1 -0.0836485 0.00447041 0.0195754 0.0860248 
3849 2 0.107982 -0.0171086 0.00235819 0.109355 
4102 2 0.0653969 -0.101376 0.0440141 0.128417 
1032 1 0.0681422 -0.021858 0.0125215 0.0726493 
78 1 -0.0080058 0.0266075 -0.0256034 0.0377834 
564 1 0.10739 0.00670374 0.111739 0.155123 
797 1 0.135288 -0.0456959 -0.0524545 0.152127 
1476 1 0.131411 -0.032764 -0.0256237 0.137836 
872 1 -0.0792098 -0.0369246 -0.0571182 0.104404 
475 1 -0.0401506 0.0167524 0.0270655 0.0512372 
4119 2 0.103579 -0.0716763 -0.0595602 0.139333 
576 1 -0.134107 0.0474952 0.0647499 0.156311 
507 1 0.0530941 -0.0286348 0.0248874 0.0652558 
248 1 0.0829554 -0.0518213 -0.0110574 0.0984343 
3597 2 -0.0534597 0.0340578 0.032713 0.0713304 
539 1 0.00167052 0.0213468 0.0844961 0.0871669 
63 1 0.0664557 0.0183154 0.0322082 0.0760867 
57 1 -0.0927567 0.00283387 -0.00314806 0.0928533 
854 1 -0.000110716 0.0404336 0.0117842 0.042116 
668 1 0.116247 -0.074738 -0.117123 0.181155 
385 1 -0.102345 -0.152421 0.0106378 0.183901 
752 1 0.0366495 -0.00531074 -0.00907364 0.0381277 
3650 2 0.0175023 0.0808015 0.00994438 0.0832713 
3736 2 -0.0801142 -0.101567 -0.049477 0.1385 
254 1 -0.0643929 -0.0961618 -0.0250277 0.118406 
3637 2 -0.0136013 0.00772703 0.0838693 0.0853157 
731 1 0.0500992 0.0186552 -0.0620484 0.0819021 
2304 1 0.101848 -0.0507495 -0.0680542 0.132589 
610 1 -0.0760631 -0.0238252 -0.0962676 0.124983 
292 1 -0.0616226 0.0180719 0.0125214 0.0654272 
313 1 -0.0786863 -0.00855221 0.0419589 0.0895836 