ITEM: TIMESTEP
98
ITEM: NUMBER OF ATOMS
4320
ITEM: BOX BOUNDS pp pp pp
0.0000000000000000e+00 1.9309999999999999e+01
0.0000000000000000e+00 1.9309999999999999e+01
0.0000000000000000e+00 9.6549999999999994e+00
ITEM: ATOMS id type c_displacement[1] c_displacement[2] c_displacement[3] c_displacement[4] 
4012 2 0.00782481 -0.141125 -0.0729137 0.15904 
2361 1 -0.0682847 -0.027451 -0.149457 0.166594 
79 1 0.0561776 -0.0315097 -0.0788457 0.101811 
781 1 0.0446792 0.0754224 0.117084 0.146265 
461 1 0.0451189 0.0470758 0.0936762 0.114136 
3704 2 0.0651769 -0.0905848 0.0736429 0.133705 
629 1 -0.00623119 0.0879872 0.0630768 0.10844 
1571 1 0.0392936 -0.0725107 -0.0695373 0.107876 
58 1 0.0529878 0.185794 -0.00522831 0.193273 
2372 1 -0.0770279 -0.0308826 -0.0544482 0.0992554 
372 1 -0.0135659 -0.0677193 -0.0473717 0.0837497 
3504 2 -0.0584349 -0.0364888 0.0465502 0.0831444 
4130 2 0.0520602 -0.0102701 -0.0815815 0.0973205 
1262 1 0.0303656 -0.0200814 -0.0573367 0.0679178 
907 1 -0.100413 -0.0273651 -0.16241 0.192895 
3659 2 0.0505462 0.0628135 -0.0292749 0.0857757 
1298 1 0.0767833 0.0466019 -0.079953 0.120249 
1716 1 0.0346545 0.0435372 -0.0320085 0.0641948 
1182 1 0.00719078 0.0573578 -0.0421061 0.0715161 
683 1 0.0497175 -0.0612989 0.0147738 0.0802973 
1958 1 -0.0859622 0.020091 -0.0365781 0.0955569 
1554 1 0.0240254 -0.0755774 -0.0611054 0.100115 
1037 1 -0.023881 -0.0886036 -0.00651447 0.0919964 
749 1 0.0385233 -0.178758 -0.0689956 0.195445 
3628 2 0.0293054 -0.0134044 0.0553491 0.0640469 
946 1 -0.133605 -0.0670583 0.0408568 0.154972 
2232 1 -0.11299 -0.187326 -0.160841 0.271528 
7 1 0.0362073 -0.0675296 0.076096 0.10799 
501 1 0.0164831 -0.0495107 0.0465431 0.0699233 
179 1 -0.0490333 0.0095069 0.0849135 0.0985137 
714 1 -0.108284 0.0575146 -0.00579669 0.122747 
4166 2 0.00898279 -0.0234609 0.113964 0.1167 
276 1 0.00507161 -0.0801864 0.0438564 0.0915367 
767 1 0.0574378 0.0205606 0.0690946 0.0921732 
3890 2 -0.108766 -0.0578083 -0.0447652 0.131056 
6 1 0.0133382 0.165932 0.0910461 0.189739 
2086 1 0.112293 0.0230869 0.00119636 0.114648 
224 1 0.108632 -0.0954101 0.0268925 0.147062 
3660 2 0.0416604 -0.0401586 0.117683 0.13114 
596 1 -0.0553788 -0.0485212 -0.0481457 0.0879722 
1214 1 0.101452 -0.0295721 -0.0431016 0.114126 
3686 2 -0.060175 -0.00421929 0.0419745 0.0734894 
427 1 -0.152678 -0.0116229 0.0508729 0.16135 
350 1 0.0560983 0.03489 -0.0707793 0.0968196 
85 1 -0.0684622 0.037531 0.0828668 0.113853 
598 1 0.046726 -0.182329 0.0256447 0.18996 
3554 2 0.110777 0.0113504 -0.0206974 0.113264 
29 1 -0.23857 0.109392 -0.0167873 0.262991 
464 1 0.0132083 -0.0337396 -0.068351 0.0773608 
3619 2 -0.0743343 -0.0424731 0.165077 0.185957 
12 1 -0.086056 0.0292708 -0.0695831 0.114474 
364 1 -0.149166 -0.0232892 -0.0297138 0.153869 
1849 1 -0.0847699 -0.0508731 -0.128524 0.16215 
3663 2 -0.230865 0.0619007 -0.105507 0.26127 
3517 2 0.00197603 0.02712 0.16515 0.167373 
25 1 0.198233 0.0576577 -0.0598736 0.214955 
4163 2 -0.0419029 -0.0495943 0.019419 0.0677683 
399 1 0.0122071 0.0750938 -0.0426816 0.0872342 
4265 2 -0.0475807 0.0286068 0.191772 0.199647 
527 1 -0.0249298 0.0616864 0.00254551 0.0665822 
200 1 0.0519076 0.0646323 0.0946701 0.125834 
1951 1 0.0631208 0.0782467 0.00388109 0.100607 
644 1 0.0402426 -0.0432806 -0.0110046 0.0601147 
193 1 -0.0256209 0.0103665 0.0341488 0.0439322 
550 1 0.0956208 -0.0521139 0.0456326 0.118074 
69 1 0.0815701 -0.0519315 0.00768216 0.097003 
842 1 0.0688797 -0.0107771 -0.0258219 0.074346 
578 1 0.0643235 -0.0848665 -0.0352104 0.112159 
172 1 0.00833408 -0.0240392 0.0975333 0.100797 
381 1 -0.0241818 -0.0219411 0.0600165 0.0683239 
3524 2 -0.00263693 0.0783477 0.0774655 0.11021 
688 1 -0.0269719 0.165768 0.0554894 0.176878 
3651 2 0.00629814 0.0124684 0.0990306 0.100011 
2367 1 0.0744788 0.0966707 -0.0977546 0.156359 
1244 1 -0.138752 0.0167967 -0.00108201 0.139769 
796 1 0.0321464 0.139245 -0.0513027 0.151837 
691 1 -0.0181128 0.0388024 -0.161642 0.167218 
421 1 0.0228206 0.0729827 -0.0199585 0.0790291 
597 1 0.0621187 0.00262449 0.0671755 0.0915324 
3617 2 0.154787 0.038643 -0.0696417 0.174075 
120 1 0.0325607 0.226477 0.0964 0.248284 
769 1 -0.0660679 -0.0894401 0.0283027 0.114741 
2142 1 0.0382865 0.0529307 -0.0195109 0.0681776 
3611 2 0.0496693 -0.0155283 0.172287 0.179975 
1915 1 0.0218906 0.123386 0.0818224 0.14966 
2140 1 0.0995747 -0.0553406 0.0287381 0.117489 
3828 2 0.0159966 0.118743 0.111907 0.163948 
3204 1 -0.0474265 0.0481207 0.0910425 0.113374 
175 1 0.111978 -0.0777222 -0.0518088 0.145821 
2011 1 0.225775 0.0968231 0.095605 0.263608 
75 1 -0.0956885 0.0984466 -0.0608807 0.150182 
547 1 -0.0236029 0.000550933 -0.158906 0.16065 
4316 2 -0.109376 0.095007 -0.048181 0.152679 
559 1 0.0275909 0.10791 -0.0508402 0.122436 
717 1 0.0055029 0.0982087 -0.142851 0.17344 
242 1 0.00275031 -0.0161876 0.187962 0.188678 
3510 2 -0.154535 0.000267005 0.224449 0.272504 
130 1 0.0771909 0.00488862 0.0167699 0.0791427 
143 1 -0.00997526 0.077066 0.00261294 0.0777528 
202 1 -0.129684 -0.122011 0.0190342 0.179072 
182 1 -0.103969 0.0525945 0.0981778 0.152363 
84 1 0.0193147 0.019693 -0.0399003 0.0485067 
3633 2 -0.0990377 -0.0368944 -0.0783863 0.131583 
35 1 -0.147731 0.0146312 0.15325 0.213364 
3612 2 0.0202103 0.0136153 0.0238513 0.0340987 
40 1 0.0378323 0.0719354 0.0354619 0.0886766 
4005 2 0.116275 -0.117396 0.116866 0.202385 
718 1 -0.10004 0.0135528 -0.0383653 0.107998 
134 1 0.053005 0.0302828 0.0745617 0.0963641 
511 1 -0.185177 -0.0296642 0.0364296 0.191043 
757 1 -0.0301407 0.169857 0.0194564 0.173604 
3555 2 -0.0170702 0.0962137 0.0909733 0.133509 
3481 2 0.0185674 -0.0508957 -0.0847979 0.100627 
135 1 -0.0813275 -0.00628381 -0.0136824 0.0827094 
369 1 0.0509511 -0.0207481 -0.0102114 0.0559533 
2148 1 0.0113721 -0.0897943 0.0183852 0.0923599 
3462 2 -0.0152183 -0.10434 -0.150072 0.183413 
1914 1 -0.0604549 -0.0858304 -0.114484 0.155333 
3661 2 0.0554149 -0.11976 -0.0385224 0.137467 
1871 1 -0.00528052 0.0484795 -0.00327364 0.048876 
320 1 -0.108111 -0.121002 -0.0572143 0.172055 
582 1 -0.0684157 -0.137106 0.0420353 0.158889 
766 1 0.0242991 0.0399779 -0.0924808 0.103641 
3552 2 0.0777273 0.0336157 -0.0567611 0.101948 
2290 1 0.0509239 0.102816 0.000620512 0.114738 
1794 1 -0.0786683 0.164693 0.016422 0.183254 
753 1 -0.0276261 -0.0556422 0.00998911 0.0629208 
396 1 0.0849021 -0.00453472 0.146593 0.169465 
496 1 0.0110192 -0.0692519 -0.0706191 0.0995203 
480 1 -0.0227327 -0.0863889 0.11932 0.149054 
253 1 0.12358 0.0121837 -0.0727757 0.143933 
4033 2 0.051163 -0.0585593 -0.05451 0.0949641 
347 1 -0.0803999 -0.0701107 -0.0813433 0.134151 
586 1 -0.0572252 0.0216232 -0.0540329 0.0816201 
3671 2 -0.0753303 -0.00374355 -0.0593008 0.095944 
37 1 0.111874 -0.170291 -0.1016 0.227678 
782 1 0.0722482 -0.0804157 -0.0276319 0.11158 
481 1 0.112884 -0.0413277 -0.0313972 0.124244 
392 1 -0.0410192 -0.0569469 -0.0673042 0.0972388 
333 1 0.00152807 -0.0788522 -0.0502169 0.0934973 
342 1 0.0208469 -0.0569273 -0.0964666 0.113935 
1179 1 0.0600372 -0.0842961 -0.103644 0.146467 
517 1 0.0531394 -0.0757222 -0.0348448 0.0988525 
1824 1 0.0490389 -0.00292993 -0.0483785 0.0689484 
34 1 0.188599 -0.0530072 0.0710224 0.208383 
398 1 0.00166961 0.0118897 -0.0405184 0.0422599 
170 1 -0.0121169 -0.0356811 -0.0117637 0.0394759 
235 1 -0.00211254 -0.0389542 0.00735407 0.0396985 
3852 2 -0.0643971 -0.0322872 -0.0125881 0.0731294 
816 1 0.0433638 -0.0622793 -0.139298 0.158629 
3931 2 -0.197393 -0.074386 0.0498577 0.216756 
274 1 -0.00618898 -0.0590306 -0.0867156 0.105083 
30 1 -0.000782427 -0.079731 -0.0161944 0.0813628 
2066 1 0.0780289 -0.0206851 0.161929 0.180935 
1082 1 -0.0259523 -0.100267 0.193208 0.219217 
1372 1 0.00893905 -0.0139029 0.0808883 0.0825597 
1265 1 0.030278 -0.0105957 0.00942477 0.0334343 
601 1 -0.0203896 0.0253592 0.0141771 0.0354939 
540 1 -0.118705 -0.148132 -0.00297402 0.189849 
589 1 -0.00975559 0.0303219 0.183092 0.185842 
958 1 0.085816 -0.0179511 0.107721 0.13889 
504 1 -0.0498152 0.0765394 -0.00944925 0.0918103 
1349 1 -0.187491 -0.038468 0.0256706 0.19311 
9 1 -0.00893191 -0.116081 -0.0387291 0.122697 
149 1 -0.0555951 0.00548572 0.0132486 0.0574145 
163 1 -0.0210328 -0.276998 0.102097 0.295963 
4247 2 0.0658846 -0.130041 -0.156684 0.214012 
1175 1 0.0324372 -0.107771 0.0334997 0.117426 
3570 2 -0.0163796 -0.133529 -0.0806947 0.156876 
237 1 -0.0316167 0.0461202 0.0875472 0.103881 
490 1 0.0706451 -0.142026 0.105481 0.190495 
50 1 0.0918454 0.00995732 0.0750903 0.119052 
152 1 0.0907661 -0.0232452 -0.257459 0.273978 
3652 2 -0.0764013 -0.077588 -0.0392017 0.115732 
3823 2 0.0659903 0.0250459 -0.169392 0.183509 
902 1 -0.056085 0.0243264 0.0775219 0.0987267 
3574 2 0.0344954 -0.00372394 0.022666 0.0414433 
770 1 -0.00981665 0.0137918 -0.0984598 0.0999046 
154 1 -0.0381048 -0.0721431 -0.0217899 0.0844477 
116 1 0.0967717 -0.0442432 0.158959 0.191286 
710 1 -0.0462261 -0.134097 -0.0326488 0.14555 
1956 1 -0.0645814 -0.0399939 0.0374253 0.0846813 
1810 1 -0.111999 0.0100967 -0.0223638 0.114655 
2072 1 -0.0335133 -0.00420455 -0.0815836 0.0882989 
1649 1 -0.0681501 -0.0283568 -0.105596 0.128838 
186 1 -0.146008 0.0404073 0.041985 0.157206 
1063 1 -0.257147 0.20637 -0.163361 0.367967 
432 1 -0.102352 0.0799768 -0.0246404 0.132209 
2495 1 -0.0833214 -0.16577 -0.0138925 0.186052 
3896 2 -0.0576244 0.025115 -0.093771 0.112891 
1071 1 -0.0565583 -0.0190245 0.0572079 0.0826651 
913 1 0.0384873 0.0435944 0.00580886 0.0584422 
1068 1 -0.121897 0.0800424 -0.121375 0.18973 
265 1 -0.0811842 -0.0383848 -0.108125 0.140554 
1287 1 0.0256552 0.0166611 0.0399255 0.0502973 
3799 2 0.149454 -0.116034 -0.116364 0.222128 
554 1 0.174136 -0.0614326 0.0182694 0.185556 
1414 1 -0.0284908 0.041527 -0.050501 0.0713202 
213 1 -0.00973599 0.0292985 0.0524819 0.0608896 
341 1 -0.0742173 -0.00444026 0.044167 0.0864791 
3682 2 0.0367743 0.0939041 -0.0337197 0.106336 
754 1 -0.00869359 0.0329112 0.0284935 0.0443915 
112 1 -0.0273729 0.080152 -0.0052626 0.0848605 
1041 1 -0.000247524 0.00934492 -0.0547378 0.0555304 
119 1 0.0599035 0.0842501 -0.0644485 0.12182 
3998 2 0.0938441 -0.0534303 0.152491 0.186855 
995 1 -0.03717 -0.0283229 -0.0474053 0.0665661 
4128 2 0.0323202 -0.0647035 0.229618 0.24074 
8 1 0.0251714 0.0417048 -0.010967 0.0499316 
94 1 0.0359615 0.0844758 -0.0416951 0.100836 
48 1 0.0776727 -0.0165637 0.127905 0.150556 
437 1 0.0680684 -0.0311205 -0.00292285 0.0749022 
3866 2 0.0434037 0.0269546 -0.0245266 0.0566744 
2206 1 0.0426207 0.0299922 -0.0720279 0.0889049 
3490 2 0.0023755 0.018388 -0.138795 0.140028 
3072 1 0.0208315 -0.122826 0.0357199 0.1296 
3002 1 0.18094 0.053382 -0.0334077 0.191586 
92 1 0.0309581 0.050071 0.0445048 0.0737983 
335 1 0.0634408 0.0277153 -0.0420579 0.0810046 
3815 2 -0.00319359 0.0706256 -0.0183114 0.0730307 
1186 1 -0.0488667 -0.0284303 -0.00871403 0.0572029 
1114 1 0.0921971 -0.0841082 0.0364048 0.129999 
1821 1 -0.117716 -0.0608885 -0.0258074 0.13502 
1922 1 -0.00962299 -0.0788423 0.0512204 0.0945106 
451 1 -0.105451 -0.0509117 -0.00247928 0.117124 
3960 2 -0.0389782 -0.0463377 0.0828929 0.102653 
100 1 -0.0819071 -0.0875081 -0.00253019 0.119887 
1180 1 0.0604536 -0.0210608 -0.0998528 0.118612 
165 1 0.056556 0.0054202 -0.0441775 0.0719695 
388 1 -0.0402952 -0.00789621 -0.117162 0.124149 
3742 2 -0.0533385 -0.0675222 0.0342076 0.092598 
323 1 -0.0872869 0.054501 0.0691975 0.124007 
288 1 -0.123655 0.0357558 -0.0481118 0.137418 
3942 2 -0.0871899 0.122711 0.105781 0.183983 
66 1 0.0293579 0.0776277 0.126087 0.15095 
340 1 0.133492 0.0827135 -0.0387364 0.161748 
138 1 -0.0259072 0.0242195 0.0876083 0.0945145 
879 1 -0.10269 0.0422739 -0.0444203 0.119606 
3808 2 0.0752671 0.186218 -0.0750559 0.21442 
834 1 0.142372 0.0377645 0.00981668 0.147622 
18 1 -0.0189642 -0.0689356 -0.150846 0.166932 
3679 2 0.161284 -0.0940196 -0.120029 0.221944 
52 1 0.01648 -0.204024 0.037732 0.208138 
407 1 -0.0124015 0.128012 -0.0966306 0.160867 
360 1 0.0500068 0.020194 -0.0393773 0.0667761 
2885 1 -0.0926132 -0.0161322 0.0187117 0.0958519 
3526 2 -0.0880757 -0.249974 -0.0110457 0.265267 
310 1 -0.0986987 -0.0345422 -0.0760189 0.129281 
326 1 0.0539405 -0.0470725 0.0684002 0.0990151 
227 1 -0.0502981 -0.0904471 -0.0922025 0.138607 
2068 1 -0.00856851 0.0191593 -0.177297 0.178535 
456 1 0.125893 -0.0152393 0.0719516 0.145803 
279 1 0.11383 0.0570892 0.177536 0.218485 
305 1 -0.0234087 -0.00960735 0.0933895 0.0967567 
49 1 0.025168 -0.030635 -0.0162856 0.0428621 
3512 2 0.0701823 -0.223638 -0.00607258 0.234471 
11 1 -0.058491 -0.13671 -0.0440947 0.155097 
189 1 -0.175404 0.0383675 -0.0786049 0.196003 
2271 1 -0.0524638 -0.120764 -0.119402 0.177745 
319 1 -0.206183 -0.0678439 0.0381431 0.220384 
3566 2 0.0897099 -0.00469004 -0.0406976 0.0986213 
71 1 0.0190254 0.00293499 0.0226124 0.0296968 
1560 1 -0.104801 0.0753863 0.0687653 0.14627 
190 1 -0.0759493 -0.0318012 0.138056 0.160746 
123 1 0.0420857 -0.00280534 0.0752592 0.086273 
27 1 0.0116178 -0.0510996 0.0842471 0.0992155 
162 1 -0.0321092 0.0587318 -0.00850536 0.0674741 
255 1 -0.153969 -0.0410365 0.0221287 0.160873 
304 1 0.00410647 0.0281557 -0.101659 0.105565 
321 1 0.0221544 -0.0423006 0.130308 0.138781 
682 1 -0.0718847 0.00524061 -0.0208689 0.0750359 
3469 2 0.0251668 0.00638908 -0.0984035 0.101771 
3539 2 -0.00906437 0.000538904 0.0879855 0.0884528 
128 1 -0.0202283 -0.0571433 -0.092356 0.110472 
3562 2 0.105126 0.0040944 0.0763847 0.130011 
560 1 -0.205217 -0.0716278 -0.0676718 0.227649 
212 1 0.0652026 0.00730535 -0.0451579 0.0796491 
355 1 0.042148 0.0444529 0.0696689 0.09277 
156 1 0.0266819 0.0542775 0.0552957 0.0819487 
3620 2 0.118185 -0.0382964 0.00383657 0.124294 
1823 1 0.145076 -0.192595 -0.0725682 0.251806 
1805 1 -0.125893 -0.0159506 0.143142 0.191294 
2599 1 -0.0786894 0.0635328 0.0896632 0.135159 
327 1 0.119368 0.0943856 0.0669173 0.166239 
137 1 0.0723591 0.0208179 -0.0309903 0.0814225 
2334 1 0.0165446 0.00354775 0.0109407 0.0201497 
3698 2 -0.0141763 0.00951886 -0.0788231 0.0806514 
555 1 -0.0326853 -0.0147112 -0.0372816 0.0517172 
4178 2 0.0162823 0.0115786 -0.0329742 0.0385549 
290 1 0.057698 -0.0180468 -0.113286 0.128408 
284 1 -0.00505441 0.0802972 0.0382042 0.0890659 
3543 2 -0.0282545 -0.107359 -0.00186648 0.111031 
366 1 0.0184925 -0.00931291 0.150441 0.15186 
55 1 0.0458322 0.030977 0.0434471 0.0703407 
273 1 0.00792025 0.0348049 -0.1157 0.121081 
3468 2 0.0553851 0.0181273 0.181796 0.190908 
316 1 0.128076 0.0329935 0.171602 0.216655 
81 1 -0.038643 -0.0241222 -0.00507166 0.0458354 
322 1 0.041758 -0.0187387 0.0500243 0.0678034 
239 1 0.072332 0.0118488 -0.032743 0.0802771 
734 1 -0.0183012 -0.120671 -0.0182938 0.123414 
384 1 -0.0426652 -0.100184 -0.0957657 0.145011 
3476 2 0.0572339 0.084094 0.0245606 0.104646 
311 1 0.0225274 -0.0996142 -0.0202059 0.104109 
3471 2 0.0586082 0.00984521 0.0598864 0.0843696 
1938 1 0.0562083 -0.0115957 -0.00118171 0.0574041 
139 1 0.087359 0.0990831 -0.076739 0.152768 
727 1 0.0998691 -0.171582 -0.101341 0.2229 
1885 1 0.0607769 0.0806197 0.0644085 0.119757 
2184 1 0.202878 0.0179538 -0.0267915 0.205425 
2494 1 -0.166115 0.0171641 -0.0925855 0.190947 
2091 1 0.00839212 -0.00902282 -0.0303236 0.0327316 
281 1 0.0353845 0.114993 0.170111 0.208358 
863 1 -0.0549003 0.0994394 0.0197887 0.115299 
176 1 -0.0699649 0.0488061 -0.100803 0.132055 
3710 2 0.026273 0.0405419 -0.0604016 0.0773451 
3572 2 -0.0636656 -0.0550813 -0.0937051 0.125968 
4197 2 0.0654842 0.0085351 -0.160548 0.173599 
343 1 -0.0298687 -0.00449827 -0.0877059 0.0927615 
282 1 0.0298645 0.00308922 -0.076536 0.0822143 
1038 1 0.0339839 0.0196558 0.0812097 0.0902013 
408 1 0.108092 -0.0595459 0.047854 0.132362 
412 1 0.094148 0.0162295 0.0977308 0.136669 
820 1 0.0653473 0.0808355 0.152885 0.184874 
585 1 -0.0174458 -0.0490643 -0.0540291 0.0750387 
3609 2 0.0116255 -0.139656 0.0763307 0.159579 
719 1 0.0139841 -0.0606028 -0.00396728 0.0623217 
608 1 0.106639 0.118994 0.106887 0.19224 
106 1 -0.0192801 0.0661476 -0.00664351 0.0692196 
1047 1 -0.0662773 -0.0680882 -0.0463864 0.105737 
3573 2 0.0871692 0.0599258 -0.0566947 0.120016 
751 1 -0.0035307 -0.0870345 -0.0598701 0.105697 
259 1 0.0241482 0.00871121 -0.054275 0.06004 
245 1 -0.0465303 0.0393721 -0.011788 0.0620821 
613 1 0.00797455 -0.13261 0.0553716 0.143927 
4296 2 -0.03888 0.0375063 -0.00742134 0.0545294 
272 1 -0.110054 -0.142484 -0.052867 0.187639 
4239 2 -0.188392 -0.0670823 -0.0609984 0.209075 
88 1 0.0259799 0.095188 0.0629272 0.117028 
4 1 0.0783087 -0.0460109 -0.0240409 0.0939533 
361 1 0.146008 0.0322597 -0.118654 0.190887 
358 1 -0.0370475 0.0830891 0.10041 0.135493 
194 1 6.27545e-05 -0.0126975 -0.07352 0.0746085 
2373 1 0.0540794 -0.00994975 -0.0618217 0.0827376 
1982 1 0.0773015 -0.00323939 0.104686 0.130173 
3953 2 0.0517421 0.0672979 0.0740705 0.112662 
414 1 0.03113 0.0644685 -0.189251 0.202339 
3186 1 0.0445666 -0.0129032 -0.0491305 0.0675757 
177 1 0.082367 0.0290746 -0.000380711 0.0873487 
1962 1 -0.035436 0.14437 0.125606 0.194616 
706 1 0.0196517 0.0662733 0.00427454 0.0692576 
1544 1 0.0176088 -0.164022 0.0275959 0.167257 
4160 2 0.00283139 0.0783457 0.0316066 0.0845283 
19 1 -0.0640058 0.116068 -0.0467474 0.140548 
3624 2 -0.0719776 0.0449656 -0.0532469 0.100189 
115 1 0.030575 0.0270505 -0.148274 0.153791 
1102 1 -0.0685866 0.0111377 0.0679408 0.0971809 
2048 1 0.116755 0.0587153 0.0613563 0.144374 
649 1 0.024472 0.0536684 -0.00495415 0.0591922 
113 1 0.00910855 -0.120481 0.0283035 0.124096 
1150 1 0.0332459 -0.0108229 -0.0143759 0.0378033 
620 1 0.0223878 -0.0953127 0.0558223 0.112703 
739 1 0.0489251 -0.0133534 -0.165318 0.172922 
2412 1 -0.0603769 -0.0134054 0.0187125 0.064616 
3746 2 0.0802577 -0.00108356 -0.22616 0.239981 
1225 1 -0.00980009 -0.0224614 0.201166 0.202654 
241 1 0.130776 -0.0701442 -0.0143117 0.149089 
83 1 0.061284 -0.0612959 -0.00496193 0.086819 
1006 1 0.07175 0.0175104 -0.0231166 0.077389 
4046 2 -0.06836 -0.0665515 -0.0633359 0.114515 
96 1 -0.0638719 -0.163725 0.0787863 0.192595 
411 1 0.140136 0.0844763 0.0270971 0.165857 
2454 1 -0.00646558 -0.042012 0.0560806 0.0703693 
404 1 0.0630597 0.0450083 0.015695 0.0790481 
226 1 0.040959 -0.0364051 0.0219046 0.0590152 
534 1 0.0446641 -0.0430415 0.138392 0.151657 
3538 2 -0.0911912 0.0298334 -0.0360354 0.102491 
761 1 0.0432727 -0.034685 0.0362068 0.0662307 
246 1 0.0684118 0.0525344 -0.0485247 0.0989681 
2229 1 -0.139253 -0.0738304 -0.0802957 0.176889 
146 1 0.0485007 -0.171908 -0.0848922 0.197766 
3608 2 -0.0924457 -0.0299999 0.0525566 0.110492 
503 1 0.106548 -0.0587893 -0.0487524 0.131093 
505 1 0.115336 -0.1249 0.0213034 0.171336 
1430 1 -0.0299489 -0.0919134 -0.0755306 0.122678 
97 1 -0.175942 0.0749332 -0.04408 0.196249 
1723 1 -0.0207098 -0.0549395 -0.0838217 0.102339 
3561 2 -0.00476054 0.189128 -0.0450277 0.194473 
20 1 -0.0598411 0.0224327 0.0123794 0.0650956 
263 1 -0.062183 0.165453 -0.0172165 0.177589 
817 1 0.0805015 -0.0905087 0.0448364 0.129161 
1034 1 -0.0762128 0.0562494 0.00556162 0.0948858 
353 1 -0.00445077 -0.110637 0.154276 0.189899 
1260 1 0.0246874 0.11142 -0.087959 0.144086 
998 1 0.0183443 0.0956848 -0.0552223 0.111989 
1932 1 0.0868164 -0.109996 -0.0708265 0.157011 
36 1 0.0354163 -0.172895 -0.0974229 0.201589 
38 1 0.0323223 0.0614203 -0.0787623 0.104979 
3130 1 0.0479075 0.0405516 -0.023802 0.0671275 
1973 1 0.117972 0.132357 0.108453 0.20784 
307 1 0.109126 -0.0450815 0.0585402 0.131787 
2714 1 0.0865426 0.0216292 -0.0476983 0.101156 
28 1 0.0105193 0.0937958 0.000803065 0.0943872 
1937 1 0.0119623 0.0883491 -0.0606052 0.107804 
562 1 -0.0700604 -0.134435 -0.0456646 0.158324 
3011 1 0.0344236 0.0341523 0.00841649 0.0492159 
410 1 0.0592588 -0.171814 0.0517898 0.188981 
693 1 0.126279 0.0568105 0.141052 0.19766 
367 1 0.010191 0.00973257 -0.0178911 0.0227743 
318 1 0.0793478 0.0374791 -0.171689 0.192815 
735 1 0.164822 0.0159356 0.0414158 0.170691 
600 1 0.0340807 -0.00142068 0.0619026 0.0706785 
3590 2 0.0963435 0.13229 0.10146 0.192553 
3636 2 0.043452 -0.0692104 -0.0342793 0.0886184 
26 1 -0.111441 -0.00887882 0.108674 0.15591 
1199 1 0.0830547 0.0977538 -0.0616736 0.142329 
614 1 -0.00966661 0.130121 -0.120793 0.177809 
459 1 -0.130792 -0.0132871 -0.0167264 0.132525 
3645 2 0.0758989 0.102745 0.0406498 0.134051 
574 1 0.0521923 -0.0580604 0.142162 0.162189 
780 1 0.131305 0.0364001 0.0101528 0.136635 
161 1 -0.0786206 -0.0192767 0.198984 0.214819 
309 1 0.0948995 0.0530531 -0.0159611 0.109888 
365 1 0.0813477 -0.10885 0.0804914 0.157939 
191 1 -0.0742781 0.0572103 -0.0143973 0.0948554 
1766 1 -0.0607253 -0.0660009 0.00474298 0.0898119 
2775 1 0.098414 -0.101377 0.0322797 0.14493 
1030 1 0.039017 -0.182275 0.0461717 0.192037 
1505 1 0.151999 0.154952 0.169097 0.27515 
3872 2 -0.0517183 0.04706 -0.0544976 0.0886533 
580 1 -0.00697915 -0.0394588 0.0249945 0.0472274 
2054 1 0.0122585 -0.0934172 0.00288701 0.0942623 
2064 1 0.0162703 0.0318816 0.0545761 0.0652664 
529 1 0.0288974 -0.00381119 -0.0442997 0.0530287 
402 1 -0.0494525 0.0644954 -0.0238414 0.0846973 
124 1 -0.135193 -0.0110521 0.0209589 0.137253 
744 1 0.114121 -0.026286 0.0647269 0.133807 
185 1 0.0527082 -0.0657648 0.102649 0.132816 
315 1 0.074082 -0.0297716 0.0105085 0.080529 
655 1 0.00555111 -0.09369 0.185556 0.207942 
765 1 0.0745839 -0.043907 0.0557698 0.10296 
140 1 -0.0469696 0.000585357 -0.141291 0.148895 
59 1 0.0983676 -0.0836842 0.0854268 0.154845 
54 1 0.0743968 0.0803798 0.0449899 0.118406 
3506 2 -0.0141269 0.0951795 -0.125172 0.157882 
666 1 0.0715275 -0.231469 0.118709 0.269789 
43 1 0.0696664 0.0458227 0.158697 0.17927 
334 1 -0.130084 -0.0771108 0.112166 0.188279 
267 1 0.105176 0.0927644 -0.180405 0.228502 
99 1 0.0993036 0.11191 0.0967475 0.178171 
1189 1 -0.126622 0.0227282 -0.168852 0.212275 
201 1 -0.0416251 0.019926 -0.0226827 0.0514218 
380 1 -0.0100924 0.0923409 -0.0860316 0.12661 
1777 1 -0.0413763 -0.0134124 -0.0685501 0.081185 
2597 1 0.1521 0.0427048 0.0703909 0.172954 
2484 1 0.182343 -0.046499 0.0719028 0.201448 
308 1 0.0471527 -0.0215006 -0.0753184 0.091425 
3918 2 0.0178484 0.194311 0.10289 0.220594 
89 1 -0.113041 0.0212811 0.0354766 0.120374 
300 1 -0.0692033 -0.0231156 0.0385887 0.082538 
3582 2 0.081442 -0.0443991 -0.0918203 0.130518 
712 1 0.0329103 0.144225 -0.0999049 0.178507 
3836 2 -0.0514001 0.128716 -0.0852651 0.162726 
268 1 -0.0350021 0.0261683 0.0956683 0.105178 
788 1 0.0128145 0.0924257 -0.0397903 0.10144 
4091 2 -0.047201 0.103293 -0.0143722 0.114472 
371 1 0.0161775 -0.047801 0.096466 0.108868 
3505 2 0.148209 0.0144544 -0.0166364 0.149839 
266 1 0.101415 -0.00589927 -0.10424 0.145553 
3571 2 -0.0197764 -0.0768396 0.0777833 0.111111 
637 1 -0.0450636 -0.0083609 -0.0779135 0.0903944 
157 1 -0.0807979 -0.0523976 0.00443171 0.0964025 
257 1 -0.0600289 0.0103745 0.0699655 0.09277 
571 1 0.028193 0.0135722 0.0795233 0.0854577 
665 1 -0.123763 -0.0766924 0.0984176 0.175741 
448 1 -0.197508 -0.158594 -0.00444931 0.25334 
827 1 0.0607102 0.0384978 0.0572518 0.0918998 
3475 2 0.0610265 0.00289875 0.033544 0.0696981 
73 1 -0.0326291 0.0718276 -0.0488498 0.092791 
373 1 0.0933871 0.0105956 0.0279253 0.0980471 
247 1 0.0312222 0.0147026 -0.0842686 0.0910615 
107 1 0.0643951 0.0835158 -0.0668147 0.124843 
675 1 -0.0860703 -0.00530634 -0.127741 0.154123 
434 1 0.106027 0.0649437 -0.0692033 0.142297 
159 1 -0.0416921 0.0783221 -0.0887011 0.125461 
32 1 0.045471 0.142133 -0.0511897 0.157765 
3579 2 0.102867 0.0328258 -0.192413 0.22064 
394 1 -0.0322822 0.00622943 0.0814862 0.0878689 
260 1 0.0636257 -0.00919982 0.0712697 0.0959804 
3972 2 -0.0444385 0.0552746 0.0759074 0.103885 
1801 1 -0.0458422 0.0648549 -0.0113162 0.080223 
2122 1 0.0547824 0.0497841 0.202737 0.215828 
1966 1 0.0870623 -0.0303731 -0.03829 0.0998423 
291 1 -0.0205929 -0.0117465 0.0748017 0.0784687 
2047 1 0.0791533 0.0332342 -0.0413502 0.0952869 
1899 1 0.0630402 0.0738794 0.00385015 0.097196 
622 1 0.0366093 0.209579 -0.0272459 0.21449 
1993 1 0.0208623 -0.00617298 0.0379844 0.0437739 
62 1 -0.00750916 0.00879605 0.0531098 0.0543545 
2187 1 -0.056413 0.0616013 -0.0951218 0.126591 
4318 2 0.0970535 0.02973 0.0823697 0.130721 
44 1 0.0750245 0.0663778 0.0820302 0.129474 
824 1 0.00320383 -0.0226814 0.0895161 0.0924005 
1282 1 0.0577502 0.0413838 0.073997 0.102583 
3626 2 0.162226 0.102148 -0.0818417 0.208446 
819 1 0.0959125 0.13181 0.0354133 0.166815 
773 1 -0.114141 -0.152299 0.0701576 0.202843 
270 1 -0.0531787 -0.0527579 -0.0490656 0.0895478 
14 1 -0.168811 -0.0640724 0.0210397 0.181783 
3540 2 0.0529175 -0.17043 0.0643279 0.189696 
997 1 0.0438727 0.111995 -0.131503 0.178215 
4275 2 -0.0314716 -0.0974306 -0.224185 0.24646 
164 1 -0.00432377 -0.00523203 0.071002 0.0713257 
234 1 -0.0136771 -0.00671423 0.0217271 0.026537 
1125 1 -0.0075479 -0.0815073 -0.0887498 0.120735 
3985 2 0.052079 0.0581156 0.0533355 0.0945215 
328 1 0.021321 0.0170224 -0.0161149 0.0316866 
3474 2 0.0891754 0.00417779 -0.0519421 0.103284 
543 1 0.0140287 -0.051608 0.00029761 0.0534816 
293 1 0.0708286 -0.0886402 0.121758 0.16643 
3458 2 0.128919 0.00487073 0.100801 0.163721 
390 1 -0.0331263 0.000702275 -0.13271 0.136784 
3706 2 0.0539856 -0.220868 -0.209754 0.309344 
2169 1 0.111879 0.0293182 -0.103424 0.155155 
1786 1 0.103439 -0.042042 0.034891 0.116981 
1478 1 -0.0454971 -0.00163433 0.0345755 0.0571675 
87 1 0.01772 -0.0194299 -0.0267494 0.0375107 
4090 2 -0.102295 -0.0473632 0.00794531 0.113008 
142 1 0.0262865 0.0236034 0.00652633 0.0359262 
1650 1 -0.078314 -0.122947 0.0105307 0.146151 
153 1 0.118769 -0.0590772 0.00956384 0.132995 
374 1 0.014492 -0.089222 -0.139835 0.166507 
602 1 0.00467344 0.00892896 -0.146567 0.146913 
1277 1 -0.0332831 0.0441098 0.022332 0.0596 
76 1 0.0553857 0.0156181 0.200516 0.20861 
1370 1 0.0386204 -0.0450023 0.0540301 0.0802246 
221 1 -0.0655295 0.0281539 -0.0612282 0.0939981 
604 1 -0.0786791 0.00201246 0.0755911 0.109126 
1161 1 0.031104 -0.0507862 0.115249 0.129726 
1718 1 -0.018003 0.0210689 -0.069088 0.0744389 
178 1 -0.106314 -0.28695 -0.00630008 0.306076 
295 1 -0.173302 -0.101396 -0.000488273 0.200786 
1472 1 -0.0522091 -0.03927 -0.0687848 0.0948645 
4159 2 -0.00566673 -0.0610359 -0.0146273 0.0630194 
3467 2 0.0447041 0.0494233 -0.0969717 0.117663 
3531 2 -0.0924624 -0.054782 0.130123 0.168767 
2720 1 0.00600071 0.00593611 -0.0800244 0.0804684 
1851 1 -0.0128669 0.00437896 -0.00320628 0.0139647 
732 1 0.0247749 -0.106319 0.00524891 0.109294 
446 1 -0.306894 0.0814102 0.105684 0.334636 
3878 2 0.0545726 0.139851 -0.0412399 0.155683 
3185 1 -0.134288 -0.0115396 -0.0373852 0.139871 
110 1 -0.126193 0.00364521 -0.0110829 0.126731 
2963 1 -0.00152587 0.0795127 -0.0231569 0.0828302 
2608 1 0.0157188 -0.00762252 0.0490897 0.0521055 
3301 1 0.0130226 0.0374982 0.141085 0.146563 
3759 2 -0.053702 -0.0290665 -0.0257341 0.0662647 
4171 2 -0.114761 0.0168046 0.114613 0.16306 
2118 1 -0.0235198 0.0141126 -0.0962917 0.100122 
1742 1 0.0241224 -0.0069161 0.0275407 0.0372587 
642 1 0.0581143 -0.265179 -0.0200828 0.272214 
3366 1 -0.0524626 -0.00732418 0.0403756 0.0666044 
144 1 0.0830872 0.0400002 -0.0706242 0.116152 
681 1 -0.0262639 0.00635186 -0.0262599 0.0376791 
1666 1 -0.00671595 -0.0445018 -0.0721045 0.0849975 
183 1 -0.0663682 -0.0999089 -0.0468719 0.128777 
694 1 -0.0825611 0.0434855 0.0754507 0.120001 
444 1 -0.0647396 0.0152578 -0.120525 0.13766 
869 1 -0.0249017 -0.13327 0.128561 0.186839 
920 1 -0.0951058 -0.16345 0.134712 0.232182 
53 1 0.119526 0.0224815 0.0404047 0.128158 
1450 1 -0.295298 0.010079 -0.0765876 0.305235 
1579 1 -0.010726 -0.0405403 0.0223357 0.0475126 
51 1 0.0683183 -0.0859427 -7.98069e-06 0.109789 
4187 2 -0.0289424 -0.0618927 -0.140751 0.156458 
1694 1 0.0335432 -0.0484298 0.259907 0.2665 
1590 1 0.0552515 -0.00186906 -0.0203644 0.0589146 
2005 1 0.116859 -0.140552 0.138164 0.229129 
736 1 -0.152168 0.0169596 -0.0450219 0.159592 
363 1 0.156661 0.0182181 0.0173573 0.158669 
230 1 -0.0518839 -0.0225538 0.159332 0.169078 
2538 1 0.0946724 -0.116901 -0.0483511 0.158008 
357 1 -0.0356546 0.0233123 -0.0563916 0.0706733 
3849 2 0.194353 -0.0773075 -0.181913 0.277204 
4102 2 0.0618445 -0.14566 0.0508022 0.1662 
1032 1 0.0906822 0.0668315 0.0831665 0.140023 
78 1 -0.00275104 0.042624 -0.0030116 0.0428187 
564 1 0.28092 -0.072079 0.0907718 0.303893 
797 1 0.146763 -0.0633813 0.0554438 0.169206 
1476 1 0.268339 0.102721 0.0225474 0.288211 
872 1 -0.0193621 0.0190638 0.0206757 0.0341439 
475 1 0.0716096 0.0280294 -0.0129686 0.0779857 
4119 2 0.275659 -0.140814 -0.084236 0.3208 
576 1 -0.0453555 0.123752 0.0891112 0.159099 
507 1 0.0299954 -0.195736 0.0397994 0.201981 
248 1 0.0247639 -0.0744809 -0.0599428 0.0987613 
3597 2 -0.0419691 0.0281455 0.052699 0.0730121 
539 1 -0.043718 -0.0648096 -0.000366381 0.0781772 
63 1 0.0591491 -0.054286 0.14815 0.168505 
57 1 -0.0528345 -0.145436 0.0389168 0.159555 
854 1 -0.0814536 -0.0419287 0.0244733 0.0948243 
668 1 0.0711212 -0.129984 -0.0516584 0.156916 
385 1 -0.0971439 -0.309553 0.154165 0.359203 
752 1 -0.0202046 0.0352889 -0.0431066 0.0592597 
3650 2 0.0362818 0.156864 -0.114948 0.197828 
3736 2 -0.0782306 -0.213991 0.0966724 0.247503 
254 1 -0.156817 -0.11404 -0.0129215 0.194329 
3637 2 -0.0395333 -0.100827 -0.0627674 0.125175 
731 1 -0.0490844 -0.131445 0.0406917 0.146092 
2304 1 0.0806067 -0.173952 0.048626 0.197791 
610 1 -0.215591 0.0285225 -0.121712 0.249212 
292 1 -0.134196 0.0301428 -0.0483732 0.145799 
313 1 -0.0591066 -0.0108495 0.0023893 0.0601415 
2133 1 -0.0491638 -0.0689718 -0.0478344 0.0972745 
646 1 -0.0789234 -0.0101145 -0.0959311 0.124635 
271 1 0.0291224 0.128344 0.0382576 0.137054 
584 1 -0.048914 0.130015 -0.0397726 0.144493 
3649 2 -0.0932114 -0.044694 0.0819318 0.131904 
1148 1 -0.0293119 0.122567 0.149105 0.195228 
779 1 -0.134297 -0.0948817 0.0781555 0.182062 
621 1 -0.127865 0.0839312 -0.0127626 0.153482 
16 1 -0.0277309 -0.0757968 0.0823494 0.115306 
3635 2 -0.111163 -0.251539 0.100094 0.292656 
790 1 0.0981115 -0.00172381 0.136219 0.167883 
17 1 -0.00669181 -0.0457784 0.0990708 0.109341 
435 1 -0.0822741 0.131773 0.0724864 0.171428 