ITEM: TIMESTEP
6
ITEM: NUMBER OF ATOMS
4320
ITEM: BOX BOUNDS pp pp pp
0.0000000000000000e+00 1.9309999999999999e+01
0.0000000000000000e+00 1.9309999999999999e+01
0.0000000000000000e+00 9.6549999999999994e+00
ITEM: ATOMS id type c_displacement[1] c_displacement[2] c_displacement[3] c_displacement[4] 
4012 2 -0.00302782 -0.000422608 -0.00410878 0.00512136 
2361 1 -0.000930368 0.00959855 -0.00653334 0.0116483 
79 1 -0.00459143 -0.0118224 0.00856144 0.0153019 
781 1 0.0169395 0.00731661 -0.0080644 0.0201374 
461 1 -0.00540295 -0.0147407 0.00331397 0.0160456 
3704 2 -0.00749651 -0.00762337 0.011841 0.0159538 
629 1 -0.0064739 -0.00414009 0.00907026 0.0118879 
1571 1 0.00178536 0.0048157 -0.0098484 0.0111072 
58 1 0.0136194 -0.00202494 0.0310856 0.0339986 
1073 1 -0.00506736 -0.00597705 0.00355579 0.00860505 
372 1 0.0021692 0.00822454 -0.0064284 0.0106617 
3504 2 0.0028471 -0.0166011 0.00576997 0.0178044 
4130 2 -0.00909794 -0.00582018 -0.0038104 0.0114528 
1262 1 0.000565068 0.0142383 -0.0126293 0.0190407 
907 1 -0.0120622 -0.00748857 -0.020624 0.0250385 
3659 2 0.0130448 0.0232846 -0.0147444 0.0304916 
1298 1 0.0129669 0.0144531 -0.00714047 0.0206887 
1716 1 -0.00135265 0.0231326 -0.00711572 0.0242401 
1182 1 -0.00596405 0.000778154 0.00692243 0.00917036 
683 1 -0.000914212 -0.00752474 0.0131474 0.015176 
1958 1 0.0141702 -0.0203455 0.0111621 0.0271906 
1554 1 -0.001192 -0.0110055 -0.00264834 0.0113823 
1037 1 -0.0103051 -0.0304605 0.00455346 0.0324772 
749 1 -0.0163444 0.00284151 0.00714094 0.0180612 
3628 2 0.0129709 0.010669 0.00768988 0.0184718 
946 1 -0.00833477 0.00609583 -0.00486043 0.0114128 
2232 1 0.0134219 0.00602271 -0.00970894 0.0176262 
7 1 -0.00186301 -0.0145652 -0.00602846 0.0158732 
501 1 0.00688495 0.0244437 -0.0167623 0.0304281 
179 1 -0.00189598 -0.000360899 -0.0145239 0.0146516 
714 1 0.00936602 -0.0051412 0.0233849 0.02571 
4166 2 0.00111802 -0.00728487 -0.0191406 0.0205106 
276 1 -0.00762506 0.00670693 0.00130993 0.0102392 
767 1 -0.0103455 -0.00142036 0.0169723 0.0199276 
3890 2 -0.0193923 -0.00336776 -0.0086584 0.0215028 
6 1 -0.00722255 0.00888502 0.00841048 0.0142072 
2086 1 -0.00204271 -0.00150332 0.0101909 0.0105018 
224 1 -0.00490971 -0.000532845 -0.000822206 0.00500651 
3660 2 0.0100011 0.0105482 0.000478497 0.0145436 
596 1 -0.00756461 -0.00143473 -0.0104535 0.012983 
1214 1 -0.00575356 -0.00674575 0.0021102 0.00911381 
3686 2 0.00810915 0.00716075 -0.000334134 0.0108234 
427 1 -0.00342077 0.00922919 0.00723434 0.0122154 
350 1 0.000304031 0.0133566 0.00578586 0.0145591 
85 1 -0.00502475 -0.00114835 -0.00565051 0.00764821 
598 1 -0.010278 -1.86955e-05 0.0156666 0.0187371 
3554 2 -0.000782283 -0.00997258 -0.00176529 0.0101578 
29 1 -0.00185058 0.01353 0.00718646 0.0154315 
464 1 -0.0141041 0.00551799 0.00010632 0.0151455 
3619 2 0.000749584 0.00348528 0.0137145 0.0141702 
12 1 0.0230326 -0.0276379 0.0173149 0.0399269 
364 1 -0.0132325 0.0110922 -0.000320668 0.0172696 
1849 1 -0.0120542 0.000816492 0.0159713 0.0200263 
3663 2 -0.00850068 0.0046432 -0.021918 0.0239629 
3517 2 0.0111536 0.00539107 0.00283013 0.0127073 
25 1 0.0102031 -0.0104585 0.00280033 0.0148769 
4163 2 -0.00978729 0.0072064 -0.00269288 0.0124489 
399 1 -0.00229019 0.000385379 -0.00120073 0.00261443 
4265 2 0.00166696 0.014466 -0.00220102 0.0147271 
527 1 -0.019684 0.0155601 -0.00458879 0.0255075 
200 1 0.00149778 -0.0111331 -0.0014517 0.0113268 
1951 1 0.00599363 0.00229065 -0.00341578 0.00726899 
644 1 0.00594793 -0.0073145 0.0135875 0.0165378 
193 1 -0.00854444 0.0156714 -0.00424086 0.0183462 
550 1 -0.00196295 -0.00714128 0.00277568 0.0079092 
69 1 -0.00915396 -0.0170243 0.0138609 0.0237854 
842 1 0.00312967 0.00830668 -0.0218961 0.023627 
578 1 -0.0206977 0.0142457 -0.007421 0.0261994 
172 1 0.00225295 -0.0214257 0.00122248 0.0215785 
381 1 -0.013673 0.0239286 -0.00900531 0.0289935 
3524 2 0.0172787 -0.0189533 0.00498567 0.0261274 
688 1 0.00504217 0.00826669 0.0066402 0.0117411 
3651 2 0.00404177 0.0123584 -0.000718419 0.0130224 
2367 1 -0.0089957 0.000458407 -0.00793374 0.0120032 
1244 1 -0.00308672 0.0151332 0.0196536 0.0249961 
796 1 -0.020159 0.00690154 0.00359653 0.021609 
691 1 0.0113485 0.000441992 0.00373262 0.0119547 
421 1 -0.00202898 -0.00184888 0.0219948 0.0221654 
597 1 -0.0139788 0.0109197 -0.00359381 0.0180987 
3617 2 -0.000791687 0.00314653 -0.0109059 0.0113784 
120 1 0.000582572 -0.00662279 -0.00460602 0.00808803 
769 1 -0.010444 0.0165945 0.00157419 0.0196706 
2142 1 0.00663928 0.00253381 0.00414817 0.00822845 
3611 2 0.0117495 0.01107 0.00823682 0.0181229 
1915 1 -0.0105021 0.00723369 -0.00435264 0.0134746 
2140 1 -0.00480981 0.00338582 0.00933276 0.0110317 
3828 2 0.0163435 0.000469622 0.00522643 0.0171653 
2192 1 0.0102286 -0.00697448 0.0160352 0.0202582 
175 1 0.00725476 0.00527373 -0.00968945 0.0132034 
2011 1 0.00273579 0.00821155 0.000133462 0.00865633 
75 1 -0.00774237 0.00362471 0.0143956 0.0167426 
547 1 -0.0104733 0.00891779 -0.000745017 0.0137758 
4316 2 0.0136957 0.00880353 0.00835864 0.0183014 
559 1 -0.00123152 -0.00180235 -0.00939694 0.00964716 
717 1 0.02357 -0.012258 0.00453102 0.0269506 
242 1 0.00326615 -0.000244211 0.00800367 0.0086479 
3510 2 -1.57728e-06 0.000410938 -0.00431503 0.00433455 
130 1 -0.00989603 -0.0135334 0.00413523 0.017268 
143 1 0.00065241 -0.00212012 -0.00253018 0.00336487 
202 1 -0.0128062 0.00228114 -0.0192092 0.023199 
182 1 -0.0187036 0.0144528 0.00164183 0.0236939 
84 1 0.000460138 -0.0182764 -0.00787712 0.0199069 
3633 2 -0.00270203 -0.0121121 0.00793473 0.0147297 
35 1 -0.023142 -0.0124429 0.00138934 0.0263118 
3612 2 0.00224824 0.0172858 -0.0195126 0.0261647 
40 1 0.0137797 0.0119461 0.00894995 0.0203148 
4005 2 0.0108225 -0.0101429 0.00326913 0.0151886 
718 1 0.00832585 0.0195261 0.00427176 0.0216526 
134 1 0.00605248 -0.0155471 -0.0107131 0.0198271 
511 1 -0.00198102 -0.0141197 0.0216368 0.0259122 
757 1 0.00770209 0.0251491 -0.00285 0.026456 
3555 2 -0.0133614 -0.00576179 -0.000282556 0.0145535 
3481 2 0.00566282 0.0125751 0.0124856 0.0186035 
135 1 0.00315314 -0.00965926 0.00348624 0.0107423 
369 1 0.00997448 -0.00759182 0.012473 0.0176834 
2148 1 0.00423522 0.00580184 -0.00899704 0.0115128 
3462 2 0.0111664 -0.0127488 -0.013604 0.0217322 
1914 1 -0.0141405 -0.016366 -0.00583705 0.0224025 
3661 2 0.00930243 -0.00575079 0.00477011 0.0119315 
1871 1 0.00674532 0.00255905 -0.00162328 0.0073948 
320 1 -0.00948856 -0.00791192 -0.00431312 0.0130857 
582 1 -0.014427 -0.00894124 0.00753364 0.0185698 
766 1 -0.00597966 0.00166809 -0.00402192 0.00739694 
3552 2 -0.00230725 -0.00411803 0.00194273 0.00510449 
2290 1 -0.00657033 0.013756 0.0138971 0.0206283 
1794 1 -0.000984475 -0.00899773 0.00307722 0.00956021 
753 1 -0.0148095 0.0047905 -0.00744637 0.0172545 
396 1 -0.00624832 -0.0101497 0.00280499 0.0122444 
496 1 0.000989185 0.013982 -0.00383758 0.0145328 
480 1 -0.0038108 -0.0119153 0.0091824 0.0155181 
253 1 0.00716956 -0.00145244 -0.00786755 0.0107429 
4033 2 0.00356061 0.00678902 -0.00449748 0.00888797 
347 1 -0.00786544 -0.00307145 0.0123577 0.014967 
586 1 0.00311679 0.000444437 -0.0165858 0.016882 
3671 2 0.0208556 0.0020095 -0.018446 0.027915 
37 1 0.000812045 -0.000947015 0.00280448 0.00306943 
782 1 -0.000958402 -0.000232033 -0.00134049 0.00166412 
481 1 -0.00086872 -0.00602379 -0.0106432 0.0122605 
392 1 -0.00637905 -0.00101027 -0.0179994 0.0191231 
333 1 -0.00469132 -0.00460204 -0.00935748 0.0114346 
342 1 0.00636842 0.00843138 -0.00801841 0.0132642 
1179 1 -0.00460916 -0.00125386 -0.00223052 0.00527179 
517 1 -0.00723519 -0.000373596 -0.00727419 0.0102665 
1824 1 0.00780298 -0.0063536 0.0214284 0.0236734 
34 1 -0.00705361 0.00634149 0.00984077 0.0136678 
398 1 0.009491 -0.00038711 0.000242174 0.00950198 
170 1 -0.00982408 -0.00456991 -0.00657245 0.0126726 
235 1 -0.000187664 -0.0214947 -0.00432781 0.0219268 
3852 2 -0.000767608 -0.0169989 -0.00167834 0.0170987 
816 1 0.00656081 -0.000936098 0.00800569 0.0103929 
3931 2 -0.00506587 -0.0152529 0.0153457 0.0222217 
274 1 -0.00789262 -0.00677961 -0.00773702 0.012966 
30 1 0.0104947 -0.000707072 -0.0048427 0.0115797 
2066 1 0.0175094 -0.0122305 0.010646 0.0238642 
1082 1 0.00957685 0.0101465 -0.000912054 0.0139821 
1372 1 -0.000299884 0.00117513 0.00872554 0.00880942 
1265 1 0.00206367 0.00544007 -0.0104469 0.0119578 
601 1 0.0147233 0.0059665 0.0139742 0.0211578 
540 1 0.00435155 0.0137675 0.0100886 0.0176142 
589 1 -0.00110417 0.0119235 -0.00506201 0.0130005 
958 1 -0.00126652 0.00743373 -0.0117644 0.0139738 
504 1 -0.0137298 0.0088743 0.00731483 0.0179099 
1349 1 0.00471231 0.0177029 0.0126737 0.022276 
9 1 -0.00265913 -0.0118455 0.00544391 0.013305 
149 1 0.00560813 0.00666468 0.0126812 0.0153845 
163 1 0.00644864 0.0104988 -0.0137281 0.0184464 
4247 2 0.00203672 -0.00406654 -0.011397 0.012271 
1584 1 0.0212967 -0.0078324 -0.0224765 0.0319388 
3570 2 -0.010728 -0.00492349 -0.00517035 0.0128866 
237 1 0.00299553 0.00212505 -0.00411216 0.00551352 
490 1 0.00057453 -0.00208454 0.0138424 0.0140103 
50 1 -0.00881698 -0.0200512 0.0102493 0.0241834 
152 1 -0.00301564 0.00343334 0.00819732 0.00938498 
3652 2 0.0105727 -0.000853891 -0.0037431 0.0112482 
3823 2 -0.00677655 0.00697744 -0.00582683 0.0113384 
902 1 0.00541416 0.0137127 -0.00305466 0.015056 
3574 2 -0.00455184 0.00489188 -0.00807167 0.0104786 
770 1 0.000761652 -0.00972853 0.00135147 0.00985144 
154 1 0.00545096 0.00379077 -0.0127868 0.0144078 
116 1 0.0106455 -0.0121569 0.000323588 0.0161623 
710 1 -0.0128766 -0.0204678 0.00423152 0.0245488 
1956 1 -0.00550104 0.012051 -0.0238705 0.0272999 
1810 1 -0.0117742 -0.00156748 0.0117863 0.0167334 
2072 1 -0.000275641 -0.00854219 -0.0172209 0.0192251 
1649 1 0.00839396 -0.0062572 -0.0038251 0.0111464 
186 1 -0.00305697 -0.0142984 0.0127963 0.0194303 
1063 1 -0.00420491 -0.000149391 -0.0113187 0.0120755 
432 1 -0.0108621 0.00373788 -0.0136187 0.0178165 
2495 1 -0.0138337 -0.0121141 0.0112401 0.0215514 
3896 2 -0.0035892 -0.00242323 -0.00227922 0.0048938 
1071 1 -0.00695394 -0.00379858 -0.00880571 0.011846 
913 1 0.0126686 -0.0163252 0.00609685 0.0215448 
1068 1 0.0174935 0.00608182 0.00626846 0.0195526 
265 1 -0.00530122 0.00298168 0.00704863 0.00931003 
1287 1 -0.00171662 0.0146755 -0.00514318 0.0156451 
3799 2 -0.00396841 -0.00300368 -0.00704709 0.00862739 
554 1 0.00118162 0.000125534 -0.0077905 0.0078806 
1414 1 -0.00423972 0.00967507 -0.0176395 0.0205605 
213 1 0.00520726 -0.0111315 -0.00254685 0.0125504 
341 1 -0.00846532 -0.00363524 -0.0060037 0.0109964 
3682 2 -0.0128578 0.00107774 -0.0153956 0.0200876 
754 1 -0.00562077 0.026274 -0.00567484 0.0274612 
112 1 -0.00381783 0.00362373 0.00022636 0.00526863 
1041 1 -0.0107703 -0.0274869 -0.00218436 0.0296024 
119 1 -0.00270857 -0.0105077 0.0151222 0.0186126 
415 1 0.00914215 0.000416319 -0.0010454 0.00921114 
995 1 0.00862576 0.0110252 0.00272312 0.0142609 
4128 2 -0.00814267 -0.00842781 0.0193949 0.0226604 
8 1 0.0138904 0.0138222 -0.000596496 0.0196049 
94 1 -0.00514219 -0.00177935 0.0101899 0.0115517 
48 1 -0.00728926 -0.00172606 -0.00256563 0.00791802 
1270 1 0.0105521 -0.011265 0.00542308 0.0163602 
3866 2 0.00086826 0.0013563 -0.00322385 0.0036037 
2206 1 0.00677994 -0.00618876 0.00193121 0.00938072 
3490 2 -0.00438824 -0.0148394 -0.00872068 0.0177627 
3072 1 0.00194666 -0.00612002 0.0187177 0.0197888 
3002 1 0.0154407 -0.0161227 0.00762045 0.0235887 
92 1 -0.00637379 0.0204657 0.00683449 0.0224984 
335 1 -0.00491748 0.00941412 -0.00705233 0.0127492 
4034 2 -0.0167249 -0.00982942 0.000528156 0.0194067 
1186 1 0.0053565 0.00163906 0.00101646 0.00569313 
1114 1 0.0179138 0.00208566 0.000838664 0.0180543 
1821 1 -0.00586879 -0.00477967 -0.00442445 0.0087672 
1922 1 -0.00686283 -0.0141281 -0.00897113 0.0180882 
451 1 -0.00495876 -0.00575199 -0.00673676 0.0101518 
3960 2 0.000851616 -0.00297274 -0.000219647 0.00310011 
100 1 -0.00624901 0.00728759 -0.000258367 0.00960342 
1180 1 -0.00570443 -0.0125024 -0.00514328 0.0146733 
165 1 0.012114 0.00346695 -0.0038087 0.0131634 
388 1 -0.0120574 -0.00979178 -0.00860879 0.0177587 
3742 2 0.0178386 -0.0054155 0.0103968 0.0213456 
323 1 -0.00710993 0.010523 -0.0207919 0.0243636 
288 1 -0.00614107 0.000328454 0.00787458 0.00999148 
3942 2 -0.00667947 0.0101104 0.018275 0.0219274 
66 1 0.00303903 0.00884898 0.00465879 0.010452 
340 1 0.000775963 -0.0217318 0.00655216 0.0227113 
138 1 -0.00300701 0.0139539 -0.00111184 0.0143175 
879 1 -0.00105474 -0.000183981 -0.00263777 0.00284678 
3808 2 0.00355265 -0.0114659 0.00373186 0.0125704 
834 1 -0.00995451 0.00195606 0.00327035 0.010659 
18 1 -0.00362259 -0.00803702 -0.0109959 0.0140935 
3679 2 -0.00314626 -0.00444254 0.00156968 0.0056656 
52 1 -0.00623949 0.00370225 -0.00154276 0.00741741 
407 1 -0.0147047 0.000388386 -0.00379805 0.0151923 
360 1 0.0148946 0.00629997 -0.0257825 0.0304348 
2885 1 -0.0044287 -0.00817518 -0.00838977 0.0125234 
3526 2 0.0009349 -0.0174987 -0.00398909 0.017972 
310 1 -0.0155013 0.000866503 0.00382034 0.0159887 
326 1 0.00179828 -0.010868 0.00624841 0.0126645 
227 1 -0.00137362 -7.38122e-05 0.00451593 0.0047208 
2068 1 -0.00739674 -0.0176452 -0.0155929 0.0246821 
456 1 -0.000740763 -0.00154921 0.00342288 0.00382947 
279 1 -0.00986676 0.0065831 0.00676694 0.0136558 
305 1 -0.0218413 0.00127609 -0.00173158 0.021947 
49 1 0.00798781 -0.00214059 0.00383542 0.0091158 
3512 2 -0.00605751 -0.0181782 0.011582 0.0223893 
11 1 -0.00011604 -0.00675641 -0.00532268 0.00860195 
189 1 0.00208883 0.00675121 0.0121702 0.0140732 
2271 1 -0.00155308 -0.00560736 -0.00871775 0.0104811 
319 1 -0.0119709 -0.00372996 -0.00574031 0.0137901 
3566 2 -0.0064756 0.00575631 -0.00112137 0.00873647 
71 1 -0.01477 0.00253123 -0.00231363 0.0151628 
1560 1 -0.00739552 -0.001519 0.0127897 0.0148519 
190 1 0.0037519 -0.00504519 -0.00115989 0.00639344 
123 1 0.00729788 0.00355749 0.00859042 0.0118199 
27 1 -0.00858931 0.00122172 -0.00715119 0.0112431 
162 1 0.00155657 0.00225068 -0.0126823 0.0129742 
255 1 -0.0123537 0.00524181 -0.00844642 0.0158566 
304 1 -0.013117 0.00194762 -0.00501283 0.0141766 
321 1 -0.000500631 -0.0125402 0.0175031 0.0215375 
682 1 -0.0136005 -0.00275643 -0.00243384 0.0140889 
3469 2 0.0194901 0.0161515 -0.0121582 0.0280812 
3539 2 0.0130023 0.0168401 0.0023443 0.0214043 
128 1 0.0140822 -0.00762228 0.00235971 0.0161857 
3562 2 0.0175808 0.0051213 0.00211297 0.0184331 
560 1 -0.00943562 -0.00708592 0.00834659 0.0144536 
212 1 0.00852057 0.00420138 0.00569086 0.0110742 
355 1 0.00159158 0.0104802 0.0170301 0.0200598 
156 1 0.0179031 0.000521129 0.00519131 0.0186478 
3620 2 -0.0086459 -0.00342774 0.0069757 0.0116259 
1823 1 0.0202267 -0.020633 -0.0102457 0.0306563 
1805 1 0.00300762 0.0118738 0.0118777 0.017062 
2599 1 0.00993369 0.0146275 -0.00999148 0.0203094 
327 1 -0.0120762 0.00647343 -0.00537004 0.0147166 
137 1 0.0110954 -0.00188534 0.0175873 0.02088 
2334 1 -0.00202414 0.00715638 9.35262e-05 0.00743772 
3698 2 0.000844727 -0.0117872 0.0054146 0.0129988 
555 1 0.00817663 -0.0041533 -0.00212091 0.00941305 
4178 2 0.0110466 0.00290057 0.00262965 0.0117199 
290 1 -0.00187287 0.00995995 -0.00682687 0.0122194 
284 1 -0.0113363 -0.00746343 -0.0121766 0.0182342 
3543 2 0.0104834 0.00213682 -0.000666733 0.0107197 
366 1 0.00252876 -0.00635152 -0.00620063 0.00922953 
55 1 -0.00149019 -0.0018833 0.00197373 0.00310855 
273 1 -0.00477644 0.00156538 0.00123623 0.0051762 
3468 2 0.00735269 -0.000212374 -0.00123732 0.0074591 
316 1 0.00684857 -0.0118776 0.0178702 0.0225238 
81 1 -0.0155691 0.00995585 0.0116756 0.0218594 
322 1 0.00736136 0.00466679 -0.00989693 0.0131878 
239 1 -0.00710118 0.00307753 -0.00470921 0.00905951 
734 1 -0.012812 -0.0133167 -0.00486378 0.0191086 
384 1 0.0118908 -0.00398941 0.00020698 0.0125439 
3476 2 -0.00757346 0.00958874 0.00398487 0.0128523 
311 1 0.0182454 -0.010919 -0.00494199 0.0218299 
3471 2 -0.0117993 0.00445716 -0.00648956 0.0141846 
1938 1 -0.00595221 -0.00435887 -0.0055253 0.00921724 
139 1 0.0166846 -0.00573642 -0.00728126 0.0190866 
727 1 -0.00909179 -0.00590441 -0.00209719 0.0110418 
1885 1 0.00169557 0.0119869 -0.0149618 0.0192462 
2184 1 -0.000104595 0.0310484 -0.0195686 0.0367007 
2494 1 -0.0110397 -0.0174806 -0.00406793 0.0210712 
2091 1 -0.00698409 -0.00528299 -0.00356115 0.00945353 
281 1 0.0129266 0.000978725 0.00827391 0.015379 
863 1 -0.000607713 0.0155935 0.00461824 0.0162744 
176 1 -0.0159062 0.00618502 -0.0141491 0.0221688 
3710 2 0.000955916 0.0108306 -0.00063401 0.0108911 
3572 2 0.00128518 -0.00645529 0.00487087 0.00818828 
4197 2 -0.012451 0.000919747 0.0040182 0.0131156 
343 1 0.00418122 -0.00673307 -0.0156759 0.0175656 
282 1 -0.000464757 0.00225524 0.00220224 0.00318621 
1038 1 0.000292732 -0.0104787 -0.00616003 0.0121587 
408 1 0.0231873 0.0213195 -0.00585742 0.0320387 
412 1 0.0153853 -0.00895809 0.00139701 0.017858 
820 1 0.00823979 -0.000900487 -0.00227953 0.00859658 
585 1 -0.00297038 -0.00549641 -0.006878 0.00929197 
3609 2 0.0152389 0.002155 -0.00117708 0.0154355 
719 1 -0.0140806 0.00846303 -0.00149152 0.0164958 
608 1 0.00328075 -0.0241025 -0.00514899 0.0248637 
106 1 0.00340949 0.0134378 -0.000637658 0.0138782 
1047 1 -0.0193547 -0.00225403 0.00397994 0.0198878 
3573 2 -0.000781789 0.00245561 -0.00583101 0.0063751 
751 1 -0.0118358 7.79097e-05 0.0051832 0.0129212 
259 1 0.0109365 -0.0143556 0.00366994 0.0184162 
245 1 -0.0118955 0.00288575 -0.0153988 0.0196711 
613 1 -0.00695496 0.00189137 0.0230853 0.0241843 
4296 2 -0.00295102 0.00144375 0.00592722 0.00677679 
272 1 -0.00922436 -0.0135413 0.000497411 0.0163922 
4239 2 0.00132344 -0.0127774 -0.00779133 0.0150239 
88 1 0.0069346 0.0157367 0.00498326 0.0179044 
4 1 0.0227073 0.0027879 -0.00781078 0.0241744 
361 1 0.00633374 0.0153712 -0.0206299 0.026495 
358 1 0.000737175 -0.00438949 0.0162627 0.0168608 
194 1 0.00245432 0.00418387 -0.0105705 0.0116303 
2373 1 -0.00325487 -0.0135255 -0.00426695 0.0145513 
1982 1 -0.00451136 -0.00534558 -0.0213381 0.0224553 
3953 2 -0.00859075 0.00500151 0.00057383 0.00995717 
414 1 0.000112998 0.00080998 -0.00434593 0.00442221 
3186 1 0.0075814 -0.00891879 0.0110132 0.0160721 
177 1 0.0127504 -0.00398747 0.0139398 0.0193078 
1962 1 -0.00428585 0.00614708 0.00479612 0.00889707 
706 1 0.00903891 0.000423467 0.00377466 0.00980456 
1544 1 -0.00341821 0.00204076 -0.00580725 0.00704081 
4160 2 -0.000166025 0.00313895 -0.00246413 0.00399406 
19 1 -0.000255739 -0.0162644 -0.00757489 0.0179437 
3624 2 0.00664777 -0.0115784 -0.00637045 0.0147931 
115 1 0.0198871 -0.00866019 -0.00541223 0.0223559 
1102 1 -0.0150844 0.00579212 -0.005839 0.0171808 
1492 1 0.0099498 0.00261411 0.00483555 0.0113673 
649 1 0.0116614 0.018304 -0.00924365 0.0235896 
113 1 -0.00534105 0.0119655 0.000698668 0.013122 
1150 1 0.0107845 -0.00310516 0.00400222 0.0119149 
620 1 -0.0241375 0.0119114 0.00820176 0.0281384 
739 1 0.00106506 -0.00317338 0.00145733 0.00365082 
2412 1 -0.000951683 0.0199529 0.00401574 0.0203753 
3746 2 0.0123425 0.00124397 -0.0201071 0.0236258 
1225 1 0.00892125 0.0140837 0.0130131 0.021149 
241 1 0.00294763 0.0156394 -0.00260397 0.0161264 
83 1 0.0056108 0.0152836 -0.0035776 0.0166694 
1006 1 -0.000590753 0.00100606 -0.001464 0.00187201 
4046 2 -0.0259528 0.00429774 -0.00373335 0.0265698 
96 1 0.0116255 -0.012951 -0.00296198 0.0176538 
411 1 0.0105584 0.00703018 0.00204163 0.012848 
2454 1 0.0047223 -0.00521068 -0.00448131 0.00833867 
404 1 0.00367315 0.00390627 0.0122873 0.0134063 
226 1 0.01516 0.00136375 0.0148652 0.0212758 
534 1 0.00559126 -0.00321254 0.0106713 0.0124683 
3538 2 0.00580627 0.0072445 0.00769486 0.0120585 
761 1 0.0109539 0.0113917 -0.000986058 0.0158345 
246 1 0.014931 -0.0134603 0.0105279 0.0226926 
2229 1 0.0133324 -0.0010225 0.00736317 0.0152648 
146 1 -0.000456398 0.0166905 -0.000780386 0.016715 
3608 2 0.0047092 -0.0134278 -0.0106489 0.017773 
503 1 -0.00717588 0.000768798 0.00771464 0.0105641 
505 1 0.007464 -0.000455387 -0.0117954 0.0139661 
1430 1 -0.00830831 -0.00785104 0.00478362 0.0123915 
97 1 -0.000573795 0.00869049 -0.00301539 0.00921664 
1723 1 0.00546892 -0.0114595 -0.014657 0.0193922 
3561 2 -0.00658254 0.00804481 0.00332351 0.010913 
20 1 -0.00486701 -0.0120489 -0.0106646 0.0168107 
263 1 -0.0145236 0.00736472 0.0125237 0.0205431 
817 1 0.0120366 -0.00764065 -0.00434231 0.0149035 
1034 1 0.00235285 0.00452235 0.00352669 0.0061988 
353 1 0.00719037 -0.0082944 -0.00237342 0.0112308 
1260 1 0.00393544 0.00412787 -0.007129 0.00912961 
998 1 0.00486917 0.00421058 -0.00678248 0.00935093 
1932 1 0.0126184 -0.0107318 0.00270926 0.0167849 
36 1 0.00567145 -0.00959409 0.011886 0.0162938 
38 1 -0.0132784 -0.0105206 -0.00730524 0.018449 
3130 1 -0.000454904 0.00601869 -0.00601038 0.008518 
1973 1 0.0139891 -0.0160705 0.0218923 0.0305488 
307 1 -0.00533221 -0.00140226 -0.0121182 0.0133135 
2714 1 0.0221117 0.00761811 0.00425696 0.0237715 
28 1 -0.00612816 -0.0131302 -0.0157165 0.0213767 
1937 1 -0.00173691 -0.00247128 -0.00699004 0.00761478 
562 1 -0.0105947 -0.010645 -0.00204552 0.0151574 
3011 1 -0.0152207 -0.00916651 0.00614202 0.0187995 
410 1 0.018532 -0.00163857 0.00484746 0.0192255 
693 1 0.0108941 0.0176799 -0.00694406 0.021897 
367 1 -0.00883533 0.0002529 -0.00358609 0.00953871 
318 1 0.0153749 0.00564382 0.0023604 0.0165472 
735 1 0.00851006 -0.00966502 0.0133627 0.0185579 
600 1 -0.00906214 0.00638458 0.0145815 0.0183168 
3590 2 -0.00981379 0.00235373 -0.0212843 0.0235558 
3636 2 0.0101376 -0.0242242 0.00399678 0.0265623 
26 1 -0.00291574 0.0136997 0.00481745 0.0148118 
1199 1 0.00907531 -0.00584653 -0.00115293 0.0108569 
614 1 0.00815636 -0.00928633 -0.00358018 0.0128678 
459 1 0.0143313 0.00661211 -0.00321905 0.0161081 
3645 2 0.0084115 0.0134477 0.0034599 0.0162347 
574 1 -0.0016709 0.0102409 -0.0163696 0.0193812 
780 1 0.0132173 -0.00304059 -0.00298243 0.0138866 
161 1 0.00714861 0.0187914 -0.0101322 0.022514 
309 1 0.0140063 0.00546023 0.00108145 0.0150718 
365 1 -0.00801901 0.00246842 -0.00330662 0.00901839 
191 1 -0.00493962 0.0172817 -0.00334989 0.0182833 
1766 1 0.0129979 0.0227636 -0.00600011 0.0268911 
2775 1 -0.00807352 -0.0118277 -0.00413236 0.0149048 
1030 1 -0.00673654 -0.00240704 0.0118708 0.0138597 
1505 1 0.00136736 0.0173911 0.0134734 0.0220421 
3872 2 -0.00344506 0.00782848 -0.0033033 0.00916871 
580 1 -0.00437288 -0.0115549 -0.00966877 0.0156883 
2054 1 -0.022815 -0.00685464 -0.00915399 0.0255207 
2064 1 0.00533905 0.00117324 -0.00858517 0.0101778 
529 1 0.00546903 0.000202724 -0.00983826 0.011258 
402 1 0.00535367 0.0102861 -0.0103896 0.0155695 
124 1 0.00421619 -0.00743273 -0.00288223 0.00901826 
744 1 -0.00153057 0.0156186 -0.00273047 0.0159292 
185 1 0.0155738 -0.0083719 0.0213382 0.027712 
315 1 0.00322872 -0.00938201 -0.012059 0.0156162 
655 1 -0.00964006 0.0092563 0.000673239 0.0133814 
765 1 -0.00581761 0.0232427 0.00801926 0.0252661 
140 1 0.00405381 0.00846547 0.0135752 0.0165041 
59 1 -0.00487988 -0.00564763 0.00414199 0.0085361 
54 1 0.00689284 0.00746098 0.0272801 0.0291098 
3506 2 0.0132465 0.00285458 -0.00106401 0.0135923 
666 1 -0.00817194 -0.00571829 0.00751693 0.0124893 
43 1 0.0010577 0.029255 0.00397258 0.0295425 
334 1 0.0056779 0.00987866 0.00732137 0.0135436 
267 1 0.00589117 0.00673571 0.00620233 0.0108878 
99 1 0.0180583 -0.018844 0.0181816 0.0318083 
1189 1 -0.0117066 -0.0119729 -0.0178098 0.0244455 
201 1 0.00705112 -0.00173008 -0.00862086 0.0112708 
380 1 0.0112861 0.0109368 -0.0143007 0.0212485 
1777 1 0.00983745 -0.00472134 -0.0107408 0.0153112 
2597 1 0.0187804 0.00404087 -0.0149724 0.0243557 
2484 1 0.0255318 0.0114764 -0.00975431 0.0296434 
308 1 -0.0124771 -0.0110109 -0.00777364 0.018367 
3918 2 -0.00364364 0.00999781 -0.0112619 0.015494 
89 1 -0.00504092 -0.0200295 -0.00882776 0.0224616 
300 1 -0.000315497 0.00914405 -0.00329981 0.00972635 
3582 2 0.00310171 0.0284095 -0.00587398 0.0291757 
712 1 -0.00921832 0.00439388 0.0102167 0.0144453 
3836 2 0.00073266 0.00189729 -0.00562423 0.00598068 
268 1 0.00980293 0.0083304 -0.00546799 0.0139783 
788 1 0.00813387 -0.00847327 -0.00967422 0.0152167 
4091 2 -0.006188 0.00787007 0.0203582 0.0226867 
371 1 0.0107712 -0.00444373 -0.0103746 0.0156012 
3505 2 0.000533086 -0.0064773 0.0133276 0.0148279 
266 1 -0.00550511 -0.000446484 5.23527e-05 0.00552344 
3571 2 -0.0201539 0.0234883 -0.00660669 0.0316469 
637 1 -0.00916956 0.00122523 0.00528246 0.010653 
157 1 0.0194634 0.0115889 0.00130275 0.0226897 
257 1 0.00115677 0.0104839 0.0187475 0.0215109 
571 1 -0.012826 -0.00482369 -0.0130044 0.0188915 
665 1 -0.00269721 0.0086761 0.0108436 0.0141468 
448 1 -0.0151227 0.00133399 0.00137426 0.0152435 
827 1 0.0212659 0.0075938 0.00130194 0.0226186 
3475 2 -0.00739779 -0.00477081 0.00433989 0.00981441 
73 1 -0.00179956 0.015844 -0.00655708 0.0172414 
373 1 -0.00078227 -0.0116914 0.00477676 0.0126538 
247 1 -0.0072528 0.00259285 0.00472267 0.00903491 
107 1 0.00417673 0.00133624 0.00668162 0.00799216 
675 1 0.00816888 0.00688162 -0.0176269 0.0206105 
434 1 0.00143072 0.00920138 0.00507746 0.0106063 
159 1 0.00849812 -0.00276338 -0.00264437 0.00931917 
32 1 -0.00350435 0.0062475 -0.00623469 0.00949647 
3579 2 -0.00764983 -0.0166341 0.00153429 0.018373 
394 1 -0.00929634 -0.00586645 0.00162326 0.0111118 
260 1 -0.0127923 -0.00410967 0.00413371 0.0140578 
3972 2 -0.00581795 0.000185488 0.0193808 0.0202361 
1801 1 -0.0138036 -0.00348997 0.0101525 0.0174869 
2122 1 -0.00173296 0.0106468 0.00437044 0.0116386 
1966 1 0.00843623 0.0112711 -0.0084948 0.0164429 
291 1 0.00106726 -0.00454519 0.00510424 0.00691744 
2047 1 0.00673229 -0.0032984 0.00179065 0.00770776 
1899 1 -0.011007 0.032629 0.00386771 0.0346521 
622 1 -0.015837 -0.00193822 0.00340167 0.0163138 
1993 1 0.000904127 0.00942425 0.0021935 0.0097183 
62 1 0.0136164 0.00866132 -0.00180839 0.0162387 
2187 1 0.0135229 0.00198064 -0.013728 0.0193714 
4318 2 0.00495168 -0.00575918 -0.00165106 0.00777261 
44 1 -0.0140502 -0.0147294 0.00219512 0.020474 
824 1 -0.0144513 -0.00125273 -0.00341251 0.0149015 
1282 1 -0.0125808 -0.00905601 0.0133513 0.0204584 
3626 2 -0.00285956 0.00283298 0.000593283 0.00406877 
819 1 0.0106995 -0.00602819 -0.00756548 0.0144241 
773 1 -0.00230317 -0.0102455 0.00220153 0.0107295 
270 1 0.0106089 -0.010464 0.0166263 0.0223266 
14 1 -0.0081356 0.0121059 -0.00740714 0.0163587 
3540 2 0.00642853 -0.0128154 0.00107053 0.0143773 
997 1 0.00648142 0.0127706 0.013332 0.0195662 
4275 2 -0.00177154 -0.0154038 -0.00752533 0.017235 
164 1 0.00255164 0.00900463 0.0252136 0.0268946 
234 1 -0.0123104 -0.00428357 0.00361354 0.013526 
1125 1 -0.00177174 0.0147973 -0.00709285 0.0165048 
3985 2 -0.0135715 -0.00404239 0.00729574 0.0159297 
328 1 -0.000233543 -0.0068717 -0.00682203 0.00968581 
3474 2 0.000435943 0.00656587 -0.000854023 0.00663552 
543 1 0.000929783 -0.0105385 0.00442677 0.0114683 
293 1 0.00232691 -0.00248674 -0.00203455 0.00396709 
3458 2 0.00867775 -0.01338 0.0035594 0.0163401 
390 1 -0.0061896 -0.0122268 0.0138272 0.0194679 
3706 2 0.0247028 -0.00051373 -0.014592 0.0286953 
2169 1 0.00377154 -0.00473579 0.00802051 0.0100489 
1786 1 -0.012904 0.00884265 -0.0104621 0.0188192 
1478 1 0.00656793 -0.00364431 0.0100383 0.0125374 
87 1 -0.0113137 -0.00887045 0.00265628 0.0146199 
4090 2 -0.00225693 -0.0138137 0.018666 0.0233309 
142 1 -0.00405444 0.00357834 0.0114651 0.0126764 
1650 1 -0.00984432 -0.00286489 -0.0125856 0.0162332 
153 1 -0.000230644 0.00440772 0.00478241 0.00650789 
374 1 -0.000964262 -0.0107056 0.0110144 0.0153902 
602 1 -0.00648921 0.0012964 0.00307299 0.00729614 
1277 1 -0.00949179 -0.00565702 0.00768253 0.013458 
76 1 -0.0161761 -0.00425627 -0.00212001 0.0168605 
1370 1 0.00128288 -0.00988498 0.0142078 0.0173557 
221 1 0.00945262 -0.0108212 -0.0129736 0.0193588 
604 1 -0.000129205 0.0142514 0.00795376 0.0163212 
1161 1 -0.00692971 0.00122869 0.0199652 0.0211694 
1718 1 -0.0138173 0.00103443 -0.00354569 0.0143024 
178 1 0.0133466 -0.0131306 -0.0013882 0.0187742 
295 1 -0.00783394 -0.00895505 -0.000837599 0.0119275 
1472 1 -0.0132037 -0.0143531 0.00635246 0.020511 
4159 2 -0.00335564 -0.0103808 -0.00541051 0.0121776 
3467 2 0.0130081 0.000765908 0.00353318 0.0135011 
3531 2 0.0139995 0.00338638 0.0219119 0.0262218 
2720 1 -0.0250479 0.00263067 0.00231927 0.0252922 
1851 1 0.00763413 0.0131376 0.000690545 0.0152103 
732 1 -0.0127771 -0.00972895 -0.000447414 0.0160657 
4009 2 0.00956214 0.0060322 -0.00750064 0.0135677 
3878 2 0.000369549 0.0011866 -0.00359166 0.00380061 
3185 1 0.00189057 0.00142362 -0.00362249 0.00432705 
110 1 -0.0188211 0.00316457 0.00180542 0.0191705 
2963 1 0.000362649 0.0118384 0.0038449 0.0124524 
2608 1 -0.00383758 -0.00204423 0.00469001 0.00639547 
3301 1 0.0060351 -0.00463226 0.00179316 0.00781637 
3759 2 -0.00211278 0.0111446 -0.000864415 0.0113759 
4171 2 0.0100616 -0.004063 0.00524116 0.0120505 
2118 1 -0.00700187 -0.00287208 -0.0182276 0.0197363 
1742 1 0.00590209 -0.0138855 -0.00289013 0.0153621 
642 1 0.00692478 -0.011354 0.0108589 0.0171692 
3366 1 -0.0143859 0.00517668 0.00594231 0.0164032 
144 1 0.0172762 -0.000945701 0.00101719 0.0173319 
681 1 0.00987908 -0.00670466 -0.00390137 0.0125606 
1666 1 0.0150257 -0.00428082 -0.00889993 0.0179807 
183 1 -0.0131333 -0.00317358 -0.000959527 0.0135454 
694 1 -0.011816 0.00488822 0.0144261 0.0192776 
444 1 -0.0036934 0.0177219 -0.00842417 0.0199668 
869 1 -3.67422e-06 -0.0181349 0.00874857 0.0201348 
920 1 -0.00264714 -0.0096845 -0.00385275 0.0107536 
53 1 0.00734631 -7.72101e-05 0.0034608 0.00812104 
1450 1 -0.0235484 -0.01394 0.00827543 0.028589 
1579 1 0.0176639 -0.00962262 0.00987608 0.0224086 
51 1 0.00720381 0.000274308 0.00784015 0.0106507 
4187 2 -0.00900483 -0.00200022 -0.0284129 0.0298728 
1694 1 0.00751877 -0.0114492 0.000517441 0.0137071 
1590 1 -0.000520714 0.0131977 0.00306782 0.0135595 
2005 1 -0.00383747 0.00422586 0.0326495 0.0331448 
736 1 -0.00127618 -0.00814143 -0.0148497 0.016983 
363 1 0.00215201 -0.00158242 0.00617951 0.00673212 
230 1 -0.00166382 -0.00368353 0.022655 0.0230127 
2538 1 -0.00547251 0.00388959 -0.0104657 0.0124342 
357 1 -0.021248 -0.000310087 0.00318942 0.0214883 