ITEM: TIMESTEP
20
ITEM: NUMBER OF ATOMS
4320
ITEM: BOX BOUNDS pp pp pp
0.0000000000000000e+00 1.9309999999999999e+01
0.0000000000000000e+00 1.9309999999999999e+01
0.0000000000000000e+00 9.6549999999999994e+00
ITEM: ATOMS id type c_displacement[1] c_displacement[2] c_displacement[3] c_displacement[4] 
4012 2 -0.00347264 -0.025983 -0.00311344 0.0263982 
2361 1 -0.00558486 0.0108932 -0.0225477 0.0256564 
79 1 -0.0288301 -0.043054 0.0235374 0.0569107 
781 1 0.0435817 0.00366774 -0.00421543 0.0439384 
461 1 -0.0119432 -0.0267397 -0.00705903 0.0301245 
3704 2 -0.0142566 -0.0275412 0.0260668 0.0405123 
629 1 -0.027508 -0.000987241 0.0245026 0.0368516 
1571 1 0.00248492 0.01147 -0.0228858 0.0257195 
58 1 0.0599338 -0.000964965 0.0972384 0.114229 
1073 1 -0.0133386 -0.0308855 0.0104905 0.0352404 
372 1 -0.00271803 0.0161463 -0.0183852 0.0246192 
3504 2 0.00542693 -0.0494647 0.0195358 0.0534589 
4130 2 -0.0188043 -0.0160973 -0.0188512 0.0311142 
1262 1 0.0140798 0.0530061 -0.0481575 0.0729865 
907 1 -0.0419914 -0.0317128 -0.0756131 0.0921212 
3659 2 0.0371607 0.0878411 -0.0505674 0.107954 
1298 1 0.0481707 0.0352342 -0.0386786 0.0711188 
1716 1 -0.00111656 0.0685253 -0.0272383 0.0737488 
1182 1 -0.0119673 0.00278765 0.0168418 0.0208479 
683 1 0.00131821 -0.0154751 0.0302252 0.0339821 
1958 1 0.0346292 -0.0537143 0.0377824 0.0742422 
1554 1 -0.00150029 -0.043986 -0.0219228 0.0491694 
1037 1 -0.0295562 -0.10285 0.0126874 0.107762 
749 1 -0.0593451 -0.0112873 0.0235875 0.0648507 
3628 2 0.0464391 0.0325308 0.0306134 0.0644362 
946 1 -0.0233681 0.0112914 -0.0257073 0.0365298 
2232 1 0.0324744 0.0117189 -0.0432615 0.0553487 
7 1 0.00924837 -0.0143268 -0.00636399 0.0182014 
501 1 0.0233824 0.0752165 -0.054696 0.0958953 
179 1 -0.0108456 -0.010211 -0.0619613 0.0637267 
714 1 0.00406553 -0.0222107 0.0735584 0.076946 
4166 2 0.00432844 -0.0258473 -0.0476753 0.0544036 
276 1 -0.0218147 0.0318222 0.0340121 0.0514331 
767 1 -0.0393892 -0.00775058 0.0533392 0.0667581 
3890 2 -0.0758827 -0.0172881 -0.0416047 0.0882498 
6 1 -0.0113793 0.0419646 0.0129224 0.0453598 
2086 1 -0.00764423 -0.00344423 0.0302156 0.0313573 
224 1 -0.00952855 -0.00620511 -0.000868557 0.011404 
3660 2 0.0297041 0.0320066 0.00469468 0.0439181 
596 1 -0.0327653 -0.00675305 -0.0253266 0.0419596 
1214 1 -0.00836938 -0.0268212 -0.00926931 0.0295862 
3686 2 0.0272133 0.0217313 0.00217004 0.034893 
427 1 -0.0245446 0.0435776 0.035012 0.0610515 
350 1 0.00242477 0.0376701 0.0175264 0.0416183 
85 1 -0.0203242 -0.0104763 -0.0140256 0.0268243 
598 1 -0.028449 -0.00463907 0.060485 0.0670022 
3554 2 -0.00107481 -0.0198259 -0.0122987 0.0233555 
29 1 -0.00803272 0.0410765 0.0263092 0.0494366 
464 1 -0.0330985 0.0192296 -0.0104192 0.0396718 
3619 2 -0.00881196 0.0166522 0.042343 0.0463452 
12 1 0.0592485 -0.103761 0.0515563 0.130133 
364 1 -0.0507461 0.034122 -0.0197252 0.0642539 
1849 1 -0.0736961 -0.0143075 0.0443499 0.0871936 
3663 2 -0.0435 0.0225814 -0.0591106 0.076787 
3517 2 0.0294652 0.0146904 0.0303443 0.0447748 
25 1 0.0513151 -0.0295984 -0.0044285 0.0594047 
4163 2 -0.0232856 0.019046 -0.00871466 0.0313195 
399 1 -0.00470833 0.0031647 -0.00709298 0.00908263 
4265 2 -0.00972478 0.0397918 0.00391637 0.0411497 
527 1 -0.0322602 0.0121763 -0.0181781 0.0389798 
200 1 0.0337879 0.00181721 0.00703294 0.0345599 
1951 1 0.0494869 0.0261207 0.00555172 0.0562323 
644 1 0.0241564 -0.0237994 0.0402703 0.0526464 
193 1 -0.0127873 0.0528675 -0.019456 0.057767 
550 1 -0.00438905 -0.020869 -0.00295644 0.0215295 
69 1 -0.0154844 -0.0422468 0.0326017 0.0555646 
842 1 -0.0186782 0.0244223 -0.0669806 0.0737003 
578 1 -0.0461664 0.0306763 -0.0148129 0.0573742 
172 1 0.00577252 -0.0630738 0.0129494 0.0646476 
381 1 -0.0186491 0.0640062 -0.0435438 0.0796282 
3524 2 0.0463867 -0.0535803 0.0426906 0.0827349 
688 1 -0.0106332 0.0400263 0.00670568 0.0419539 
3651 2 0.000749407 0.0361848 -0.000446831 0.0361953 
2367 1 0.00335724 0.0129246 -0.0113948 0.0175544 
1244 1 -0.0237064 0.0394039 0.0436574 0.0634084 
796 1 -0.0652556 0.0367094 -0.00563655 0.0750842 
691 1 0.0354949 -0.0040341 0.0100609 0.0371131 
421 1 0.000882278 0.00589066 0.0723707 0.0726154 
597 1 -0.0397873 0.0367448 -0.0139611 0.0559296 
3617 2 -0.000661203 0.0130052 -0.035907 0.0381954 
120 1 0.0236083 0.00509533 0.00159861 0.0242047 
769 1 -0.0269119 0.0301258 0.0206185 0.0453535 
2142 1 0.00791029 0.00571764 -0.00112627 0.0098251 
3611 2 0.0560856 0.0397155 0.0485298 0.0841312 
1915 1 -0.0252642 0.0226904 -0.00816481 0.0349256 
2140 1 -0.0189855 0.00775675 0.0441677 0.0486971 
3828 2 0.0546148 0.00683931 0.0180129 0.0579139 
2192 1 0.0276435 -0.0180411 0.0414612 0.052997 
175 1 0.0354353 0.0274267 -0.0275225 0.0525868 
2011 1 0.0267411 0.0230722 -0.0137124 0.0378873 
75 1 -0.0188978 0.0264659 0.0342831 0.0472536 
547 1 -0.0363531 0.0193251 -0.0154399 0.0439704 
4316 2 0.00544197 0.0175022 0.0088422 0.0203501 
559 1 0.00720458 0.00906182 -0.0307293 0.0328377 
717 1 0.0430024 -0.0041567 -0.00603852 0.0436228 
242 1 0.00636902 -0.00561484 0.0327501 0.0338328 
3510 2 -0.0135293 0.00676678 0.00958755 0.0179095 
130 1 0.00706655 -0.0326737 0.0389276 0.0513115 
143 1 -0.00522227 0.00991069 -0.0199273 0.0228602 
202 1 -0.054786 -0.00583199 -0.0431917 0.0700074 
182 1 -0.0631005 0.0375503 -0.00168583 0.0734475 
84 1 0.0128789 -0.0476838 -0.0339331 0.0599255 
3633 2 0.00385362 -0.0381045 0.0342186 0.0513587 
35 1 -0.0712226 -0.0449301 0.0380386 0.0924029 
3612 2 0.00805469 0.0393938 -0.067246 0.0783503 
40 1 0.0579515 0.0421254 0.0308732 0.0780133 
4005 2 0.0313178 -0.0404878 0.00981023 0.0521182 
718 1 0.0106316 0.0417539 -0.00945119 0.0441106 
134 1 0.00723004 -0.0390782 0.00522656 0.0400836 
511 1 -0.0129679 -0.0549821 0.0650666 0.0861676 
757 1 0.0333708 0.0787159 -0.00592169 0.0857022 
3555 2 -0.0406333 -0.000579402 0.00457832 0.0408945 
3481 2 -0.00836444 0.0234473 0.000125558 0.0248949 
135 1 0.00855025 -0.0332982 0.00789377 0.0352731 
369 1 0.0242831 -0.0219877 0.0548986 0.0639296 
2148 1 -0.0146498 -0.00456791 -0.0215261 0.0264359 
3462 2 0.0285219 -0.0419992 -0.0606371 0.0790841 
1914 1 -0.0271624 -0.018149 -0.00573417 0.0331672 
3661 2 0.0326485 -0.0354247 0.0143002 0.0502527 
1871 1 0.0165489 0.0095832 -0.0115582 0.0223449 
320 1 -0.0245688 -0.019359 -0.0206539 0.0374831 
582 1 -0.0201203 -0.0464763 0.0148791 0.0527851 
766 1 -0.0238942 0.00882209 -0.00852318 0.026859 
3552 2 -0.00354394 -0.0268979 0.0105479 0.0291087 
2290 1 -0.0213391 0.0354764 0.038282 0.0563866 
1794 1 0.00510331 -0.0191862 0.00948353 0.022002 
753 1 -0.0536586 0.0172464 -0.00886225 0.0570545 
396 1 -0.0112753 -0.0257449 0.0330312 0.0433704 
496 1 -0.00262588 0.0394238 -0.0315738 0.050577 
480 1 -0.0181334 -0.0337728 0.035359 0.0521505 
253 1 0.0270591 0.000616763 -0.0112902 0.0293265 
4033 2 0.00407698 0.0149199 -0.0159135 0.0221915 
347 1 -0.0330617 0.000522841 0.0375643 0.0500443 
586 1 -0.0192904 0.0136925 -0.0590851 0.0636447 
3671 2 0.0671519 0.00596081 -0.0596171 0.0899951 
37 1 -0.00584427 -0.0203318 0.0105267 0.0236294 
782 1 0.0103697 -0.0281508 -0.00421215 0.0302942 
481 1 0.0148354 -0.00685384 -0.035191 0.0388004 
392 1 -0.029817 0.0124203 -0.0574897 0.0659422 
333 1 0.0082092 -0.0248478 -0.0198464 0.0328433 
342 1 0.010237 0.0191504 -0.0248677 0.0330142 
1179 1 -0.00984502 0.00345643 -0.0220407 0.0243857 
517 1 -0.0144871 -0.0157304 -0.0237918 0.0319902 
1824 1 0.0306607 -0.0215501 0.0671518 0.0769015 
34 1 -0.00740017 0.0170003 0.026941 0.0327046 
398 1 0.0170873 -0.00673133 -0.0127915 0.022381 
170 1 -0.037852 -0.0250945 -0.0230655 0.0509365 
235 1 0.00339955 -0.0731234 0.00207112 0.0732317 
3852 2 -0.00779652 -0.0456848 -0.00531247 0.0466488 
816 1 0.0232227 0.000244691 0.00759338 0.0244339 
3931 2 -0.0359289 -0.0506568 0.0611982 0.0871907 
274 1 -0.0236317 -0.0239143 -0.0165981 0.0374946 
30 1 0.0268595 0.0029119 -0.0135558 0.030227 
2066 1 0.0488133 -0.0334472 0.0467081 0.0753863 
1082 1 0.0223674 0.0147477 0.0124143 0.0295281 
1372 1 0.00189645 -0.0104803 0.0410818 0.0424399 
1265 1 0.0240968 0.00425215 -0.0433833 0.0498081 
601 1 0.0362665 0.0238341 0.0402151 0.0591657 
540 1 0.0157134 0.0350509 0.0303145 0.048933 
589 1 -0.0149718 0.0551128 0.0116806 0.0582925 
958 1 0.0186924 0.0130152 -0.0316847 0.039022 
504 1 -0.0462542 0.0233951 0.00647464 0.052237 
1349 1 0.00353821 0.0440039 0.00818336 0.044898 
9 1 -0.00285391 -0.0480155 0.0209378 0.0524598 
149 1 0.0153406 0.0294448 0.0240782 0.0410133 
163 1 0.0208581 0.0040566 -0.0302754 0.036988 
4247 2 0.00731036 -0.0178092 -0.0375903 0.0422331 
1584 1 0.0758145 -0.0141552 -0.0723255 0.105732 
3570 2 -0.025316 -0.0256559 -0.0058971 0.0365226 
237 1 0.0108036 0.0180398 -0.0060315 0.0218754 
490 1 -0.0103934 -0.0220273 0.0285042 0.0374929 
50 1 -0.0264347 -0.0616621 0.0284631 0.0728777 
152 1 0.00386958 0.0118194 0.0147775 0.0193144 
3652 2 0.0166438 -0.00822383 -0.00436522 0.019071 
3823 2 -0.0117824 0.0349123 -0.0372518 0.0523965 
902 1 0.0183495 0.0402054 -0.0130764 0.0460887 
3574 2 -0.0129356 0.02382 -0.0312713 0.0413838 
770 1 -0.00181164 -0.0344414 -0.00329744 0.0346463 
154 1 0.00958654 0.00195027 -0.0258913 0.0276779 
116 1 0.0431869 -0.0381791 0.00860013 0.0582814 
710 1 -0.0423621 -0.0693663 -0.000925157 0.081284 
1956 1 -0.00977192 0.0365849 -0.0639901 0.0743551 
1810 1 -0.0588198 -0.0169961 0.0521866 0.0804493 
2072 1 -0.00975383 -0.0186182 -0.0340385 0.0400049 
1649 1 0.00785509 -0.0103888 -0.0159167 0.0205662 
186 1 -0.0143042 -0.0363238 0.0541278 0.0667372 
1063 1 -0.0136647 0.0114945 -0.0689896 0.071263 
432 1 -0.0407812 0.0359989 -0.0468759 0.0718079 
2495 1 -0.0532194 -0.0538337 0.041034 0.0861055 
3896 2 -0.00294328 -0.00812954 -0.0150273 0.017337 
1071 1 -0.0198395 -0.0210792 -0.0290559 0.0410144 
913 1 0.0361693 -0.051373 0.0229042 0.0668731 
1068 1 0.0524852 0.0193947 0.00903338 0.0566785 
265 1 -0.028116 0.016467 0.000356317 0.0325853 
1287 1 -0.00349384 0.0595524 -0.00906911 0.0603402 
3799 2 0.00599665 -0.0176631 -0.0358923 0.04045 
554 1 0.0156921 -0.00610774 -0.0437798 0.0469065 
1414 1 -0.0163972 0.0279315 -0.0528189 0.0619586 
213 1 0.00685607 -0.0318333 -0.00445434 0.0328665 
341 1 -0.0308414 -0.0183678 -0.0213204 0.0417507 
3682 2 -0.0324823 0.00303968 -0.0362106 0.0487396 
754 1 -0.0208441 0.078721 -0.0109999 0.0821735 
112 1 -0.0280355 0.0211084 0.00380169 0.0352988 
1041 1 -0.0227343 -0.0739029 0.0041618 0.0774326 
119 1 -0.00586067 -0.0268235 0.0556655 0.0620685 
415 1 0.0209121 0.023095 -0.0184934 0.0362312 
995 1 -0.00362753 0.0275335 0.0111285 0.0299181 
4128 2 -0.0280304 -0.0274125 0.0625991 0.0738634 
8 1 0.0459456 0.040111 -0.0043578 0.0611463 
94 1 -0.00646913 -0.0286943 0.0155435 0.0332688 
48 1 -0.00625783 0.00520264 -0.00319925 0.00874432 
1270 1 0.0296981 -0.0326525 0.00756648 0.0447818 
3866 2 0.0147149 0.0107352 -0.00740268 0.0196614 
2206 1 0.0167612 -0.0117394 -0.00435589 0.0209219 
3490 2 -0.0311798 -0.0247738 -0.0157038 0.0428081 
3072 1 0.00772612 -0.0212485 0.052718 0.0573618 
3002 1 0.0537427 -0.0205315 0.0218137 0.0615277 
92 1 -0.00610519 0.0727504 0.0358693 0.0813418 
335 1 -0.0285323 0.0394755 -0.0328345 0.0587411 
4034 2 -0.067048 -0.0563111 0.0197053 0.0897478 
1186 1 0.0142808 0.00793144 0.00613236 0.0174486 
1114 1 0.0579318 0.0225834 0.014253 0.0637907 
1821 1 -0.0142338 -0.0249785 -0.0267552 0.0392729 
1922 1 -0.0101904 -0.0499877 -0.00709162 0.0515064 
451 1 -0.0345091 -0.0281708 -0.0091893 0.0454854 
3960 2 0.00340482 -0.0142448 0.00484186 0.0154257 
100 1 -0.0184913 0.0267367 -0.0197875 0.0380569 
1180 1 -0.0139154 -0.0347601 -0.0305067 0.0482965 
165 1 0.0491094 0.00341297 -0.013302 0.0509933 
388 1 -0.0397084 -0.0374831 -0.0215309 0.0586968 
3742 2 0.0505095 -0.0209561 0.0304443 0.0625877 
323 1 -0.0364874 0.0485611 -0.0608105 0.0859501 
288 1 -0.0232098 0.0044883 0.0146138 0.0277921 
3942 2 -0.0248989 0.0296233 0.0551547 0.0673761 
66 1 0.0207439 0.027168 0.0252424 0.0424922 
340 1 -0.00759025 -0.04655 0.0139786 0.0491926 
138 1 -0.0185848 0.0280854 0.00994792 0.0351162 
879 1 0.00566827 0.00394651 -0.0279051 0.0287472 
3808 2 0.0234089 -0.024145 0.0080294 0.034575 
834 1 -0.0260757 0.00783703 0.0145309 0.0308627 
18 1 -0.0228883 -0.0314026 -0.0503537 0.0636041 
3679 2 0.000157136 -0.0137354 0.00110861 0.013781 
52 1 0.00711544 0.00466755 -0.00809348 0.0117439 
407 1 -0.0490804 -0.00469837 -0.0408788 0.0640472 
360 1 0.035805 -0.000914759 -0.0786892 0.0864571 
2885 1 -0.0343092 -0.0367559 -0.023489 0.0554964 
3526 2 0.000698168 -0.0731135 -0.0190982 0.0755699 
310 1 -0.046579 -0.00703496 0.0121642 0.0486525 
326 1 0.0253112 -0.0164638 0.0243971 0.0388192 
227 1 -0.00681801 -0.00539676 -0.000976404 0.00875007 
2068 1 -0.0278528 -0.0512864 -0.0747822 0.0948602 
456 1 0.00322707 -0.00126684 0.0146103 0.015016 
279 1 -0.0231861 0.0142707 0.0330599 0.0428276 
305 1 -0.062686 0.00540003 -0.00863342 0.0635077 
49 1 0.0125431 0.0197185 0.0195455 0.0304659 
3512 2 -0.0083922 -0.0506471 0.0329769 0.0610167 
11 1 -0.0144319 -0.0497886 -0.00812487 0.052471 
189 1 -0.00213938 0.0330274 0.0421833 0.0536173 
2271 1 -0.0248388 -0.0194883 -0.0206334 0.037716 
319 1 -0.0447845 -0.0202515 -0.0112407 0.0504195 
3566 2 -0.0184549 0.0253189 -0.0162833 0.0353097 
71 1 -0.0307304 0.0111509 -0.00372903 0.0329029 
1560 1 -0.0179007 -0.0205078 0.0355365 0.0447643 
190 1 0.00965004 -0.0240836 0.0116291 0.028432 
123 1 0.031399 0.0142304 0.0274932 0.0440939 
27 1 -0.0256079 0.0017198 -0.0203228 0.0327374 
162 1 -0.00602521 -0.00101223 -0.0492366 0.0496142 
255 1 -0.0437663 0.0126096 -0.0257351 0.0523143 
304 1 -0.0488151 0.00662322 -0.0232891 0.05449 
321 1 -0.00129905 -0.0474458 0.0738578 0.0877939 
682 1 -0.0275154 0.0128712 -0.000122868 0.0303773 
3469 2 0.0560186 0.0497123 -0.0468501 0.0883421 
3539 2 0.0283028 0.0404465 0.024326 0.0550339 
128 1 0.0423676 -0.0200475 -0.00838953 0.0476161 
3562 2 0.0598881 0.0213859 0.0198709 0.0666243 
560 1 -0.0448964 -0.0300778 0.0167757 0.0565843 
212 1 0.0165506 0.0178904 0.0135333 0.0278772 
355 1 0.00563884 0.0367933 0.0663749 0.0760997 
156 1 0.0568846 0.0160918 0.0325212 0.0674716 
3620 2 -0.018976 -0.0142177 0.0105236 0.0259418 
1823 1 0.0728026 -0.0650799 -0.0436111 0.106946 
1805 1 0.00805856 0.0453366 0.0491485 0.0673493 
2599 1 0.00633352 0.0224273 -0.0167107 0.0286765 
327 1 -0.0157952 0.0139575 -0.00927622 0.0230293 
137 1 0.0360252 -0.0118911 0.0533478 0.0654614 
2334 1 -0.00655024 0.0259171 0.0105115 0.0287244 
3698 2 0.0172287 -0.0467175 0.015771 0.052231 
555 1 0.0165328 -0.0205912 -0.0185258 0.0322574 
4178 2 0.0279069 -0.00720491 0.0153192 0.0326402 
290 1 -0.00328358 0.0394576 -0.0189243 0.043884 
284 1 -0.0295572 -0.0127995 -0.037937 0.0497662 
3543 2 0.027944 -8.81751e-05 0.0137245 0.0311326 
366 1 0.0148651 -0.0268525 -0.00214757 0.0307675 
55 1 -0.0160792 0.00843107 0.00045361 0.0181612 
273 1 -0.0105265 -0.0254544 0.00359231 0.0277784 
3468 2 0.0266727 0.0105604 0.00574173 0.0292562 
316 1 0.0337045 -0.0343538 0.0635764 0.0797379 
81 1 -0.0452365 0.0258971 0.0288777 0.0595896 
322 1 0.0197754 0.00372381 -0.017712 0.0268076 
239 1 -0.0206984 0.0137178 -0.0261172 0.0360376 
734 1 -0.0414997 -0.0497173 -0.0196556 0.0676785 
384 1 0.0491911 -0.0168911 -0.0127093 0.0535407 
3476 2 -0.0141806 0.0445194 0.00637399 0.0471561 
311 1 0.0301967 -0.0271021 -0.032563 0.052026 
3471 2 -0.0238043 0.00921203 -0.00826682 0.0268299 
1938 1 -0.00658992 -0.0257861 -0.0123891 0.0293571 
139 1 0.0605268 -0.0242909 -0.01392 0.0666881 
727 1 0.00695094 -0.0133395 0.0268779 0.0308006 
1885 1 0.00489721 0.0324322 -0.0471175 0.0574099 
2184 1 0.0243864 0.106374 -0.0673938 0.128266 
2494 1 -0.0608085 -0.0490014 -0.0504704 0.0929843 
2091 1 -0.0282782 -0.0165017 -0.0210351 0.0389158 
281 1 0.0351959 0.0317981 0.0462712 0.0662638 
863 1 0.00234708 0.0638288 0.0119744 0.0649847 
176 1 -0.053746 0.0329574 -0.0290571 0.06942 
3710 2 -0.00220506 0.0356979 -0.0132697 0.0381482 
3572 2 0.00480862 -0.0359971 -0.00607502 0.0368215 
4197 2 -0.0419594 0.0102585 0.00160339 0.043225 
343 1 0.00534335 -0.0220324 -0.0559086 0.0603303 
282 1 -0.000671368 -0.0113704 0.00598028 0.0128647 
1038 1 -0.00871674 0.00751916 -0.00592679 0.0129478 
408 1 0.082556 0.0683896 -0.020425 0.109132 
412 1 0.0658407 -0.0301049 -0.0023556 0.0724352 
820 1 0.0400476 -0.00168839 0.00151707 0.0401119 
585 1 -0.0207617 -0.0242895 -0.0265784 0.0415625 
3609 2 0.0324427 -0.0143301 -0.00140546 0.0354945 
719 1 -0.0267629 0.0338085 -0.00941222 0.0441345 
608 1 0.00532851 -0.0389544 -0.0116453 0.0410055 
106 1 -0.00684119 0.038236 0.0128942 0.0409274 
1047 1 -0.0619355 -0.0115312 0.000804138 0.063005 
3573 2 0.000255999 0.0107176 -0.026822 0.0288851 
751 1 -0.0277812 -0.00728481 -0.00554458 0.0292507 
259 1 0.0333781 -0.0439766 0.0127725 0.0566672 
245 1 -0.0428472 0.000789744 -0.0437297 0.0612273 
613 1 -0.0210846 0.00406459 0.0808479 0.0836508 
4296 2 -0.0183862 0.0171863 0.0152077 0.0294057 
272 1 -0.044036 -0.0489317 4.14085e-05 0.0658292 
4239 2 -0.0014802 -0.0553141 -0.0254903 0.0609228 
88 1 0.0284327 0.05282 0.0286793 0.0664896 
4 1 0.0779658 -0.00251163 -0.0303437 0.0837001 
361 1 0.0281133 0.0542712 -0.0707948 0.0935287 
358 1 -0.0069089 -0.017047 0.0120778 0.0220047 
194 1 -0.00187604 0.016483 -0.0388768 0.0422684 
2373 1 -0.00531789 -0.0285219 -0.0276526 0.0400805 
1982 1 -0.0066941 -0.0189863 -0.0384533 0.0434044 
3953 2 -0.0157191 0.0112233 0.0119031 0.0226878 
414 1 0.00512152 0.00570239 -0.0165411 0.0182306 
3186 1 0.0326736 -0.0407927 0.025355 0.0580903 
177 1 0.0391545 -0.00805009 0.054574 0.0676476 
1962 1 -0.0222735 0.0237816 0.0226974 0.0397095 
706 1 0.0283569 -0.00467392 -0.00422453 0.0290483 
1544 1 -0.0172012 -0.0125034 -0.0100882 0.0235369 
4160 2 -0.00739904 0.00145247 -0.00570428 0.00945485 
19 1 -0.0109026 -0.0430152 -0.0401012 0.0598104 
3624 2 0.0116702 -0.0187974 -0.0256818 0.0338982 
115 1 0.0719015 -0.0423228 -0.00507352 0.083587 
1102 1 -0.0513987 0.0111304 -0.0150791 0.0547092 
1492 1 0.0256784 0.00991339 0.0285446 0.0396542 
649 1 0.0389756 0.0711321 -0.0343923 0.0881005 
113 1 0.00232046 0.0211426 -0.00120721 0.0213038 
1150 1 0.0304291 -0.012225 0.0221863 0.0395931 
620 1 -0.0673416 0.0323335 0.0220073 0.077876 
739 1 -0.0290003 -0.0094112 0.0167892 0.0348061 
2412 1 0.00122218 0.0518217 0.00751318 0.0523778 
3746 2 0.0409918 0.00950827 -0.0709366 0.0824788 
1225 1 0.0234903 0.0418862 0.042436 0.0640864 
241 1 0.0312401 0.0412601 -0.0100379 0.0527171 
83 1 0.0216005 0.0365964 -0.0149842 0.04506 
1006 1 0.00659199 0.00327305 -0.00553422 0.0092084 
4046 2 -0.0689994 -0.00471585 -0.0273662 0.0743779 
96 1 0.0298915 -0.0458743 -0.010086 0.0556748 
411 1 0.0296123 0.0289869 0.0254217 0.0486147 
2454 1 -0.00631011 -0.0053901 -0.0242457 0.0256266 
404 1 -0.0165368 0.0209442 0.0386441 0.0469627 
226 1 0.0442762 -0.00788655 0.0480387 0.0658049 
534 1 0.0231583 -0.00599139 0.0514921 0.0567771 
3538 2 0.0181084 0.0230496 0.013479 0.0322627 
761 1 0.0382979 0.0138381 0.00495325 0.0410215 
246 1 0.0564116 -0.0477495 0.0277021 0.0789284 
2229 1 0.0250194 -0.0248177 0.0220849 0.0415889 
146 1 -0.00331701 0.0349391 -0.0174064 0.0391756 
3608 2 0.0309005 -0.0282216 -0.0152519 0.0445412 
503 1 -0.0238956 -0.00360474 0.0276628 0.0367318 
505 1 0.0363014 -0.00967937 -0.0185161 0.0418847 
1430 1 -0.0402228 -0.0210512 0.0061686 0.0458157 
97 1 -0.00133163 0.0256014 -0.0173764 0.0309701 
1723 1 0.0193238 -0.0215614 -0.049299 0.0571725 
3561 2 0.00120754 0.0432593 -0.00157628 0.0433049 
20 1 -0.0267237 -0.0501866 -0.0253174 0.06224 
263 1 -0.0422927 0.0451692 0.0244262 0.0665249 
817 1 0.0432589 -0.0277904 -0.00473638 0.051634 
1034 1 0.0102157 0.0107547 0.0105714 0.0182148 
353 1 0.024894 -0.0123332 0.0222174 0.0355729 
1260 1 0.0264696 0.0342924 -0.0147117 0.0457498 
998 1 0.00998492 0.016851 -0.0248746 0.0316607 
1932 1 0.0389435 -0.0502894 0.00297165 0.0636746 
36 1 0.0314075 -0.0415286 0.0332132 0.0617589 
38 1 -0.0353734 -0.0247544 -0.0385345 0.0578702 
3130 1 0.00638011 0.026608 -0.0210249 0.0345071 
1973 1 0.0444823 -0.0449447 0.0730138 0.0965904 
307 1 -0.0269412 -0.0311633 -0.0556488 0.0692371 
2714 1 0.0651952 0.0258814 0.0106993 0.0709558 
28 1 -0.00369238 -0.0137879 -0.0178986 0.0228932 
1937 1 -0.00378133 -0.00190779 -0.0219419 0.0223469 
562 1 -0.0378753 -0.0470853 -0.00209113 0.0604643 
3011 1 -0.0481355 -0.0212251 0.0157385 0.0549111 
410 1 0.0566924 -0.00829495 0.0152948 0.0593023 
693 1 0.03451 0.065288 -0.00107672 0.0738554 
367 1 -0.0239467 0.00200103 -0.00848989 0.0254858 
318 1 0.0629914 0.0175958 -0.00126198 0.065415 
735 1 0.0356618 -0.0297434 0.0247405 0.0526168 
600 1 -0.0263971 0.0354904 0.0395778 0.059353 
3590 2 -0.0454683 0.0191363 -0.0660032 0.0824014 
3636 2 0.0278794 -0.0734276 0.0176056 0.0804912 
26 1 -0.0227339 0.0412293 0.0253116 0.0534543 
1199 1 0.0321926 -0.0120507 -0.0146411 0.0373623 
614 1 -0.00500866 -0.0265894 -0.00859441 0.0283892 
459 1 0.0436459 -0.0102569 -0.0248151 0.0512441 
3645 2 0.0347308 0.0498302 0.0172863 0.0631513 
574 1 0.00857738 0.040764 -0.0334028 0.053395 
780 1 0.0459416 -0.00937644 -0.00846115 0.0476459 
161 1 0.00693044 0.0501124 -0.0323787 0.0600639 
309 1 0.0584103 0.0221027 0.0111108 0.063433 
365 1 -0.0127255 -0.0322017 0.00254318 0.0347182 
191 1 -0.0240997 0.048344 -0.000367525 0.0540192 
1766 1 0.0291898 0.0679574 -0.0297435 0.0797178 
2775 1 -0.0244648 -0.050682 -0.0231952 0.0608704 
1030 1 -0.00991802 -0.0111393 0.0389652 0.0417222 
1505 1 0.029012 0.0594725 0.049829 0.0828348 
3872 2 -0.00056705 0.0266779 -0.00400934 0.0269834 
580 1 -0.0225285 -0.0351511 -0.0248645 0.048594 
2054 1 -0.0787312 -0.0302371 -0.033428 0.0907211 
2064 1 0.0220743 0.00189914 -0.0292118 0.0366635 
529 1 0.0106075 0.0187779 -0.0367303 0.042594 
402 1 0.0052428 0.031127 -0.025572 0.040624 
124 1 0.0133726 -0.0309884 -0.00185019 0.0338014 
744 1 0.0177458 0.0331028 -0.00635787 0.0380937 
185 1 0.052227 -0.0301216 0.069291 0.0918488 
315 1 -0.00378485 -0.030948 -0.0341367 0.0462322 
655 1 -0.0332237 0.0153587 0.0303411 0.0475425 
765 1 -0.0168241 0.0627026 0.0205274 0.0680885 
140 1 0.0157386 0.0308926 0.0146699 0.0376465 
59 1 -0.0209573 -0.0213449 0.0127771 0.0325279 
54 1 0.0125754 0.0158067 0.0610688 0.0643225 
3506 2 0.0271096 0.0142052 -0.0113429 0.0326402 
666 1 -0.0336815 -0.0399274 0.0323362 0.0614351 
43 1 0.0105547 0.087235 0.0253023 0.0914416 
334 1 0.016525 0.0308434 0.00662933 0.0356137 
267 1 0.0396551 0.0311331 0.0205009 0.054425 
99 1 0.0441053 -0.0180919 0.0583927 0.0753811 
1189 1 -0.0440931 -0.0370272 -0.0589677 0.0824161 
201 1 0.0191189 -0.0231569 -0.029935 0.0424014 
380 1 0.0294546 0.0429059 -0.0577193 0.0777175 
1777 1 0.0210231 -0.0115375 -0.0277769 0.0366967 
2597 1 0.0976488 -0.00376388 -0.0444276 0.107346 
2484 1 0.0740169 -0.00274309 -0.0470407 0.0877432 
308 1 -0.0406496 -0.0242717 -0.0204767 0.051583 
3918 2 -0.0157983 0.0272748 -0.0133315 0.0342232 
89 1 -0.0292208 -0.0199 -0.0263832 0.0441128 
300 1 -0.0038243 0.0247445 -0.00718116 0.0260477 
3582 2 0.011407 0.0692646 -0.000453039 0.0701991 
712 1 -0.0388702 0.0177778 0.0395249 0.0582165 
3836 2 -0.00139444 0.0110933 -0.0273884 0.0295826 
268 1 0.0246966 0.0123987 -0.0172564 0.0325796 
788 1 0.0200821 -0.00581179 -0.0522496 0.0562769 
4091 2 -0.0147564 0.0455176 0.0442015 0.0651412 
371 1 0.0356196 -0.00474248 -0.00818781 0.036855 
3505 2 0.00212573 -0.0150151 0.0540852 0.056171 
266 1 -0.00836634 -0.00958959 -0.00819438 0.0151362 
3571 2 -0.0610798 0.0664116 -0.00618581 0.0904406 
637 1 -0.0158668 0.00450258 -0.00516292 0.0172825 
157 1 0.0564993 0.00334156 0.00135725 0.0566143 
257 1 0.00579887 0.0336905 0.0453854 0.05682 
571 1 -0.0372952 -0.00660988 -0.0385027 0.05401 
665 1 -0.0361483 0.0312972 0.0546731 0.0726317 
448 1 -0.0486966 -0.00745459 0.00730101 0.049802 
827 1 0.0686307 0.041576 -0.00551056 0.0804307 
3475 2 -0.0174936 -0.0167707 0.0147997 0.0283957 
73 1 -0.00852851 0.0588327 -0.0141055 0.0610982 
373 1 0.0136844 -0.0388147 0.02473 0.0480147 
247 1 -0.00777066 -0.0026337 -0.0040993 0.0091719 
107 1 0.0217964 0.00510721 0.0262721 0.0345165 
675 1 0.00798411 0.0251812 -0.0595184 0.0651174 
434 1 -0.00361211 0.0317886 0.0214337 0.0385093 
159 1 -0.00159867 -0.000675706 -0.00669538 0.00691668 
32 1 0.00414156 0.0285634 -0.00582972 0.029445 
3579 2 -0.00379536 -0.0509346 -0.00577533 0.0514013 
394 1 -0.0223141 -0.00247808 0.0167499 0.0280111 
260 1 -0.039284 -0.00355474 0.00998176 0.0406878 
3972 2 -0.0181226 0.00629048 0.0649182 0.0676932 
1801 1 -0.042963 -0.00478871 0.0344816 0.0552968 
2122 1 -0.00572475 0.0257448 0.0267225 0.0375454 
1966 1 0.0239492 0.013298 -0.0295165 0.0402694 
291 1 -0.000497645 -0.00791442 0.0169003 0.0186683 
2047 1 0.0320606 -0.00490312 0.0180653 0.0371252 
1899 1 -0.0271662 0.0985445 0.0137043 0.103135 
622 1 -0.0453711 0.00209946 0.00844162 0.0461975 
1993 1 -0.00779732 0.015328 -0.00298042 0.0174536 
62 1 0.0349288 0.0297089 0.00329672 0.0459729 
2187 1 0.0271748 0.00208313 -0.0528278 0.059444 
4318 2 0.0203092 -0.0288646 -0.00496439 0.0356409 
44 1 -0.0314913 -0.0416225 0.0201457 0.0559462 
824 1 -0.0298527 -0.00684857 0.00307192 0.0307819 
1282 1 -0.0303504 -0.00544335 0.0503641 0.0590535 
3626 2 0.00900604 0.0173802 -0.00472719 0.0201377 
819 1 0.0285227 -0.00612477 0.00812982 0.0302845 
773 1 -0.0348368 -0.0342537 0.00872256 0.0496286 
270 1 0.0377429 -0.0453962 0.0390774 0.0707982 
14 1 -0.0349286 0.0379045 -0.0334064 0.0614227 
3540 2 0.0235537 -0.0401587 -0.00282729 0.0466422 
997 1 0.0449732 0.0174482 0.0197648 0.0521313 
4275 2 -0.00748261 -0.0428792 -0.0305596 0.0531837 
164 1 0.0190009 0.0309804 0.077861 0.0859252 
234 1 -0.0433697 -0.0359744 0.0179305 0.059132 
1125 1 -0.000306362 0.0520527 -0.0325563 0.0613962 
3985 2 -0.0455217 -0.0069218 0.0454023 0.0646645 
328 1 0.00764921 0.000661929 -0.0258124 0.02693 
3474 2 0.00506142 0.0169891 -0.00382534 0.0181351 
543 1 -0.0236007 -0.0282275 0.00124586 0.0368149 
293 1 0.0247109 -0.0163797 0.00292533 0.0297906 
3458 2 0.0276914 -0.0380916 0.020436 0.0513363 
390 1 -0.0170281 -0.0375761 0.0299635 0.0509876 
3706 2 0.0799705 -0.0153787 -0.0444257 0.0927655 
2169 1 0.0316125 0.00545812 0.0175922 0.0365872 
1786 1 -0.0336667 0.025968 -0.0386531 0.0574617 
1478 1 0.0204591 -0.01638 0.0483457 0.0549926 
87 1 -0.0213342 -0.0241169 -0.000730182 0.0322072 
4090 2 -0.00490578 -0.038635 0.0440289 0.0587815 
142 1 -0.0162346 0.0130374 0.040269 0.0453335 
1650 1 -0.0395986 -0.0137164 -0.04142 0.0589221 
153 1 -0.00150351 0.0207056 0.014178 0.0251395 
374 1 0.0159332 -0.0241502 0.0156509 0.0328945 
602 1 -0.0107684 -0.00957459 0.000763911 0.0144297 
1277 1 -0.0327551 0.000263833 0.00901671 0.0339746 
76 1 -0.0445746 -0.01232 0.0144001 0.0484359 
1370 1 0.019257 -0.0286541 0.0542377 0.0642932 
221 1 0.0192774 -0.0153283 -0.0465736 0.0526847 
604 1 0.000108866 0.0418679 0.0371701 0.0559871 
1161 1 -0.0317572 0.00219705 0.0466741 0.0564961 
1718 1 -0.0560588 -0.000500806 -0.0281937 0.0627513 
178 1 0.039987 -0.0536761 -0.00136997 0.0669474 
295 1 -0.0290944 -0.0275235 0.00640906 0.0405599 
1472 1 -0.0349433 -0.0447284 0.0262506 0.0625361 
4159 2 -0.0103668 -0.0317866 -0.0204494 0.0391923 
3467 2 0.052324 -0.00241526 0.0149068 0.0544596 
3531 2 0.040886 -0.00306816 0.0686222 0.079938 
2720 1 -0.0824453 0.0242178 -0.00837405 0.0863357 
1851 1 0.0170002 0.0301549 0.00127223 0.0346402 
732 1 -0.0394753 -0.0421346 0.00230934 0.0577837 
4009 2 0.0360683 0.0433056 -0.017301 0.0589544 
3878 2 0.00447907 0.006618 -0.012432 0.0147788 
3185 1 -0.0271365 -0.0146411 -0.0014642 0.030869 
110 1 -0.052527 -0.00837046 0.0103054 0.0541788 
2963 1 -0.008725 0.0119915 -0.00409031 0.0153835 
2608 1 -0.0170166 0.00363941 0.00932909 0.0197444 
3301 1 0.00158029 -0.0179224 -0.00357049 0.0183428 
3759 2 -0.0122543 0.0326412 -0.00840653 0.0358648 
4171 2 0.00965877 0.0105512 0.00308961 0.0146344 
2118 1 -0.0184493 -0.00588641 -0.056541 0.0597654 
1742 1 0.0412385 -0.0613418 0.00835324 0.0743855 
642 1 0.028126 -0.0562914 0.0459181 0.0778991 
3366 1 -0.0447069 0.00954504 0.0332355 0.0565191 
144 1 0.0684789 0.0310096 0.00596089 0.0754088 
681 1 0.0299255 -0.0278269 -0.0279892 0.0495304 
1666 1 0.0565 -0.0186928 -0.0282138 0.0658612 
183 1 -0.0493898 -0.0215603 -0.00905661 0.0546464 
694 1 -0.0581676 0.0137733 0.0473373 0.0762495 
444 1 -0.00823874 0.0515708 -0.0383348 0.0647841 
869 1 -0.00209096 -0.0581362 0.0386843 0.0698617 
920 1 -0.00512992 -0.0373275 -0.0216835 0.0434722 
53 1 0.0198811 0.00474038 0.0144669 0.0250404 
1450 1 -0.0856291 -0.0432388 0.0117769 0.0966469 
1579 1 0.0668271 -0.032484 0.0385703 0.0837183 
51 1 0.0333434 0.00756536 0.0284016 0.0444485 
4187 2 -0.0400984 -0.019435 -0.104515 0.113617 
1694 1 0.0139098 -0.0474303 0.0131337 0.051143 
1590 1 0.00356979 0.0322194 -0.006114 0.0329881 
2005 1 -0.0191371 0.00641121 0.0933098 0.0954676 
736 1 -0.0129792 -0.015862 -0.0484095 0.0525694 
363 1 0.00820198 -0.00233967 0.0255223 0.0269097 
230 1 0.00625663 0.00516915 0.100203 0.100531 
2538 1 -0.0132532 0.0172199 -0.0428558 0.0480499 
357 1 -0.0605902 -0.000319887 0.0149994 0.06242 
3849 2 0.0561189 0.00421112 0.033707 0.065599 
4102 2 0.0521054 -0.0557037 0.0221537 0.079427 
1032 1 0.0393285 -0.0159399 0.000935027 0.0424463 
78 1 -0.00344351 0.00141315 -0.00260365 0.00454244 
564 1 0.0348404 0.000927628 0.0657411 0.0744084 
797 1 0.0733106 -0.0173979 -0.0253035 0.0794821 
1476 1 0.0651276 -0.0200829 -0.0169204 0.0702227 
872 1 -0.0368763 -0.0276847 -0.0105952 0.0473135 
475 1 -0.0239447 -0.00222689 0.0026877 0.0241977 
4119 2 0.0269936 -0.0251641 -0.0139656 0.0394578 
576 1 -0.0696684 0.0321518 0.0431267 0.088019 
507 1 0.0308153 0.00227027 0.0206096 0.0371415 
248 1 0.0593417 -0.0302797 -0.00661453 0.0669481 
3597 2 -0.0268006 0.0104484 -0.00907854 0.0301639 
539 1 -0.00262351 0.0208832 0.0591101 0.0627454 
63 1 0.0505107 0.00663871 0.00345131 0.0510619 
57 1 -0.0755094 0.00467315 -0.0098552 0.0762931 
854 1 -0.00538625 0.00921119 0.00868687 0.0137593 
668 1 0.0780121 -0.0227077 -0.0704308 0.107527 