ITEM: TIMESTEP
18
ITEM: NUMBER OF ATOMS
4320
ITEM: BOX BOUNDS pp pp pp
0.0000000000000000e+00 1.9309999999999999e+01
0.0000000000000000e+00 1.9309999999999999e+01
0.0000000000000000e+00 9.6549999999999994e+00
ITEM: ATOMS id type c_displacement[1] c_displacement[2] c_displacement[3] c_displacement[4] 
4012 2 -0.00426773 -0.0209821 -0.0040565 0.0217926 
2361 1 -0.00444096 0.0129176 -0.0201615 0.0243531 
79 1 -0.0245397 -0.0386289 0.0217424 0.0506667 
781 1 0.040909 0.00605387 -0.00693784 0.0419324 
461 1 -0.011694 -0.0271034 -0.00420429 0.0298164 
3704 2 -0.0141409 -0.0244131 0.0252025 0.0378303 
629 1 -0.024112 -0.00307475 0.0228063 0.0333312 
1571 1 0.00248206 0.0110719 -0.0217566 0.0245376 
58 1 0.0527974 -0.00203103 0.08889 0.103408 
1073 1 -0.0123013 -0.026273 0.00985628 0.0306388 
372 1 -0.00140381 0.0166106 -0.0173268 0.0240437 
3504 2 0.00558927 -0.0454802 0.0176844 0.0491164 
4130 2 -0.0187357 -0.0149408 -0.0157855 0.0286956 
1262 1 0.0114051 0.0475947 -0.0432207 0.0652944 
907 1 -0.0376903 -0.0282604 -0.0678485 0.0825992 
3659 2 0.0352109 0.0782645 -0.0457266 0.0972423 
1298 1 0.0431567 0.0336192 -0.0329906 0.0638837 
1716 1 -0.00156502 0.0632494 -0.0241423 0.0677184 
1182 1 -0.0125004 0.00229721 0.0162857 0.0206582 
683 1 0.00117059 -0.0144682 0.0281197 0.0316452 
1958 1 0.0331917 -0.0501952 0.034431 0.0693307 
1554 1 -0.00189362 -0.0395303 -0.0183662 0.0436296 
1037 1 -0.0277321 -0.0930624 0.0116599 0.0978041 
749 1 -0.0535476 -0.00786722 0.0209796 0.0580463 
3628 2 0.0424836 0.029783 0.0281575 0.0590316 
946 1 -0.0216899 0.0113104 -0.0221873 0.033025 
2232 1 0.0311536 0.012067 -0.0379898 0.0505904 
7 1 0.00662634 -0.0167744 -0.00734532 0.0194742 
501 1 0.0216702 0.0692264 -0.0497898 0.0879824 
179 1 -0.00935898 -0.0083038 -0.054974 0.0563798 
714 1 0.00732474 -0.0195813 0.066979 0.070166 
4166 2 0.0037658 -0.0229477 -0.0456855 0.0512635 
276 1 -0.020357 0.0284534 0.0277991 0.0446855 
767 1 -0.0353977 -0.00663252 0.0494951 0.0612107 
3890 2 -0.0673218 -0.0148561 -0.0359054 0.0777311 
6 1 -0.0118303 0.0363239 0.0139082 0.0406549 
2086 1 -0.00662187 -0.00339415 0.0277434 0.0287239 
224 1 -0.00989583 -0.00481113 -0.000974774 0.0110465 
3660 2 0.0273827 0.0296569 0.0034464 0.040512 
596 1 -0.0287278 -0.00593517 -0.0244336 0.0381774 
1214 1 -0.00865269 -0.0237304 -0.00611285 0.0259878 
3686 2 0.0247781 0.0200544 0.00144817 0.0319097 
427 1 -0.0207489 0.0383697 0.0303701 0.0531516 
350 1 0.00196765 0.0348601 0.0163399 0.0385498 
85 1 -0.0181972 -0.009238 -0.0136713 0.0245638 
598 1 -0.0263727 -0.00349308 0.0537794 0.0599995 
3554 2 -0.00126183 -0.019459 -0.0102805 0.0220439 
29 1 -0.00681854 0.0377332 0.0236224 0.0450367 
464 1 -0.0316735 0.0174011 -0.00797091 0.0370073 
3619 2 -0.0066705 0.0144384 0.0384946 0.0416509 
12 1 0.0561835 -0.0929922 0.0481712 0.118847 
364 1 -0.0451733 0.0322507 -0.0153009 0.0575748 
1849 1 -0.0657168 -0.0104256 0.0426154 0.0790156 
3663 2 -0.0363583 0.0195823 -0.0557204 0.0693553 
3517 2 0.0278149 0.0141992 0.0249699 0.0399847 
25 1 0.0440835 -0.0278499 -0.00227734 0.0521935 
4163 2 -0.0227027 0.0176979 -0.00776913 0.0298159 
399 1 -0.00479365 0.00243715 -0.00588592 0.00797263 
4265 2 -0.00698471 0.0368745 0.00223417 0.0375966 
527 1 -0.0343573 0.016793 -0.0165984 0.0416886 
200 1 0.0276392 -0.00185996 0.00432941 0.0280379 
1951 1 0.0421833 0.0210199 0.00245944 0.0471945 
644 1 0.0217433 -0.0213985 0.0371774 0.0480918 
193 1 -0.0138828 0.0481237 -0.017725 0.05313 
550 1 -0.00439089 -0.0191246 -0.00117777 0.0196575 
69 1 -0.0160793 -0.0407578 0.0317718 0.054122 
842 1 -0.0133411 0.0224064 -0.0620281 0.0672868 
578 1 -0.0446819 0.0298291 -0.0151802 0.0558273 
172 1 0.00560674 -0.058674 0.0111129 0.0599798 
381 1 -0.0202128 0.0607568 -0.0374131 0.0741599 
3524 2 0.0441202 -0.0492876 0.0347876 0.0747398 
688 1 -0.00615941 0.0349981 0.00783247 0.0363889 
3651 2 0.00263184 0.0334588 -0.000961584 0.0335759 
2367 1 -0.000892616 0.0105776 -0.0122189 0.0161859 
1244 1 -0.0196769 0.0373888 0.0425915 0.0599928 
796 1 -0.059454 0.0313507 -0.00299665 0.0672802 
691 1 0.0324088 -0.00301252 0.00924829 0.0338369 
421 1 -0.00030283 0.00388104 0.0658516 0.0659666 
597 1 -0.0368397 0.0333363 -0.0125003 0.0512321 
3617 2 -0.00104313 0.0118223 -0.032631 0.0347223 
120 1 0.0190109 0.00124675 -0.000655319 0.019063 
769 1 -0.0252764 0.0303876 0.0167566 0.0429312 
2142 1 0.00890605 0.00495191 0.000542203 0.0102046 
3611 2 0.0489288 0.035976 0.0417478 0.0736965 
1915 1 -0.0241172 0.0207312 -0.00858313 0.0329407 
2140 1 -0.0174086 0.00744577 0.0385068 0.0429101 
3828 2 0.0492384 0.00551343 0.016106 0.0520982 
2192 1 0.0261433 -0.0166875 0.038933 0.0497767 
175 1 0.0305756 0.0237078 -0.0255814 0.0463825 
2011 1 0.0220172 0.0217985 -0.0106475 0.0327613 
75 1 -0.0183243 0.0221246 0.0333735 0.0440348 
547 1 -0.0332804 0.0195189 -0.0122682 0.0404856 
4316 2 0.00981576 0.0169921 0.0104839 0.0222484 
559 1 0.00500938 0.00616155 -0.0284371 0.0295251 
717 1 0.0442137 -0.00974051 -0.00266838 0.0453525 
242 1 0.00592944 -0.00409972 0.0293072 0.0301807 
3510 2 -0.0103098 0.0051663 0.00564058 0.0128374 
130 1 0.00141742 -0.0309841 0.0321059 0.0446409 
143 1 -0.00397947 0.00707506 -0.0163549 0.0182585 
202 1 -0.0478479 -0.00369377 -0.0416454 0.0635405 
182 1 -0.056976 0.0353325 -0.000688984 0.0670457 
84 1 0.0104486 -0.0448812 -0.0299981 0.0549853 
3633 2 0.00214772 -0.0347453 0.0304318 0.0462379 
35 1 -0.065073 -0.0413949 0.0308925 0.0830805 
3612 2 0.00712234 0.0379895 -0.0611597 0.0723494 
40 1 0.0508267 0.0377534 0.0276268 0.069079 
4005 2 0.0288277 -0.035985 0.0088402 0.0469479 
718 1 0.0123144 0.0412668 -0.0054716 0.0434112 
134 1 0.00834219 -0.0373591 -0.000256282 0.03828 
511 1 -0.0109153 -0.0496412 0.0606701 0.079147 
757 1 0.0294122 0.0716593 -0.00590232 0.0776851 
3555 2 -0.0375421 -0.00315745 0.00293618 0.0377889 
3481 2 -0.00502695 0.0234666 0.00463713 0.0244429 
135 1 0.00779391 -0.0301459 0.0078717 0.0321167 
369 1 0.0233088 -0.0204141 0.0480606 0.0571826 
2148 1 -0.00942317 -0.00107851 -0.0208077 0.0228674 
3462 2 0.0267069 -0.038091 -0.0527689 0.0703473 
1914 1 -0.0271407 -0.0210745 -0.00687881 0.0350438 
3661 2 0.0292359 -0.0299964 0.0131461 0.0439015 
1871 1 0.0156255 0.00837853 -0.00955902 0.0201428 
320 1 -0.0229532 -0.0186437 -0.0181926 0.034719 
582 1 -0.0213883 -0.0401799 0.0153193 0.0480267 
766 1 -0.021664 0.0077933 -0.00865891 0.0245976 
3552 2 -0.00322069 -0.0230373 0.00933643 0.0250651 
2290 1 -0.0191556 0.0335563 0.0360702 0.0528585 
1794 1 0.00363989 -0.0195097 0.0076242 0.0212604 
753 1 -0.0487134 0.0152958 -0.0101851 0.0520643 
396 1 -0.0112019 -0.024666 0.0267741 0.0380887 
496 1 -0.0019983 0.0371179 -0.0263156 0.0455439 
480 1 -0.0156686 -0.0312179 0.0315269 0.0470532 
253 1 0.0240602 6.79152e-05 -0.0122198 0.0269855 
4033 2 0.00475146 0.0143104 -0.0140534 0.0206121 
347 1 -0.0293679 -0.00103535 0.0351063 0.0457821 
586 1 -0.0141837 0.0111177 -0.0531114 0.0560857 
3671 2 0.0612588 0.00563365 -0.0541567 0.0819593 
37 1 -0.00446124 -0.0161809 0.00960454 0.0193383 
782 1 0.00800513 -0.0221543 -0.00393828 0.0238831 
481 1 0.011325 -0.00748398 -0.0317304 0.0345121 
392 1 -0.0261099 0.00942723 -0.0522922 0.0592036 
333 1 0.00488182 -0.0216406 -0.0191883 0.0293315 
342 1 0.01071 0.0189338 -0.0228442 0.0315444 
1179 1 -0.00950211 0.00241781 -0.018382 0.0208335 
517 1 -0.0141505 -0.0122137 -0.021853 0.028757 
1824 1 0.0270519 -0.0194207 0.0611649 0.0696428 
34 1 -0.00890742 0.015884 0.0251802 0.0310754 
398 1 0.0173451 -0.00523356 -0.00971877 0.0205596 
170 1 -0.0339721 -0.0216772 -0.0206227 0.0452692 
235 1 0.00234181 -0.066164 -0.000489487 0.0662072 
3852 2 -0.00652853 -0.0431167 -0.00480029 0.0438716 
816 1 0.0209122 -7.2804e-05 0.00940506 0.0229299 
3931 2 -0.0302576 -0.0455353 0.0544108 0.0771332 
274 1 -0.0219034 -0.0215048 -0.0161842 0.0347008 
30 1 0.0256273 0.00245224 -0.0123749 0.0285641 
2066 1 0.0454402 -0.0310811 0.0408357 0.0685449 
1082 1 0.0215381 0.0165046 0.00938956 0.0287134 
1372 1 0.00142849 -0.00789818 0.0358521 0.0367395 
1265 1 0.0193392 0.00584785 -0.0383986 0.0433896 
601 1 0.0346632 0.0207369 0.0376735 0.0552345 
540 1 0.0142549 0.0333271 0.0283812 0.0460368 
589 1 -0.0123784 0.0479067 0.00713021 0.0499912 
958 1 0.0140099 0.0131919 -0.0300349 0.0356708 
504 1 -0.0418368 0.0219218 0.00805336 0.0479139 
1349 1 0.00539343 0.0420549 0.0116459 0.0439697 
9 1 -0.00325282 -0.0423993 0.0187196 0.0464619 
149 1 0.0148135 0.0253742 0.0244167 0.0382029 
163 1 0.0191373 0.00811568 -0.0303476 0.0367841 
4247 2 0.00657911 -0.0154395 -0.0342295 0.0381225 
1584 1 0.0679222 -0.0139277 -0.0662994 0.0959324 
3570 2 -0.0244086 -0.0217891 -0.00701595 0.033463 
237 1 0.0096675 0.0150845 -0.00672485 0.019137 
490 1 -0.00838553 -0.0183939 0.0288286 0.03521 
50 1 -0.0239326 -0.0570725 0.0265421 0.0673389 
152 1 0.0016052 0.010921 0.015312 0.018876 
3652 2 0.0174561 -0.00691976 -0.00489718 0.0194057 
3823 2 -0.0122714 0.0302271 -0.0317216 0.045503 
902 1 0.0165763 0.037038 -0.0116246 0.0422104 
3574 2 -0.0115028 0.0207312 -0.0278114 0.0365455 
770 1 -0.00108691 -0.0310351 -0.00182251 0.0311075 
154 1 0.00976329 0.00327751 -0.0253802 0.0273902 
116 1 0.0382518 -0.0349793 0.00686518 0.0522865 
710 1 -0.0382084 -0.0625094 0.00201842 0.0732897 
1956 1 -0.0100076 0.0337419 -0.0604906 0.0699842 
1810 1 -0.051579 -0.0143189 0.0463982 0.0708394 
2072 1 -0.00755287 -0.0178858 -0.0338469 0.03902 
1649 1 0.00962604 -0.0108917 -0.0139425 0.0201416 
186 1 -0.0121602 -0.0350496 0.0486234 0.0611603 
1063 1 -0.012185 0.00863069 -0.0590835 0.0609411 
432 1 -0.0361269 0.0304069 -0.0419716 0.0631771 
2495 1 -0.0476863 -0.0473648 0.0366531 0.0765562 
3896 2 -0.00369397 -0.00757182 -0.0124157 0.0150043 
1071 1 -0.0186093 -0.0183588 -0.0261357 0.0369652 
913 1 0.0333189 -0.047094 0.0205573 0.0612421 
1068 1 0.0493503 0.0178716 0.00960391 0.053358 
265 1 -0.0242497 0.0146372 0.00286381 0.0284692 
1287 1 -0.00418289 0.0531235 -0.00941436 0.0541131 
3799 2 0.00318507 -0.015019 -0.0306212 0.0342545 
554 1 0.0131572 -0.00410883 -0.0381675 0.0405802 
1414 1 -0.014644 0.0259454 -0.0486865 0.0570787 
213 1 0.00750299 -0.0298742 -0.00478384 0.0311713 
341 1 -0.027536 -0.0160649 -0.0192039 0.037217 
3682 2 -0.030426 0.00255172 -0.0345548 0.0461117 
754 1 -0.0180839 0.0732145 -0.0109869 0.0762109 
112 1 -0.023624 0.0181372 0.00328503 0.029964 
1041 1 -0.0220135 -0.0698628 0.00224475 0.0732833 
119 1 -0.00602609 -0.0259897 0.0504688 0.0570866 
415 1 0.0202907 0.0186948 -0.0154296 0.0316114 
995 1 0.00078539 0.0260676 0.00976373 0.0278472 
4128 2 -0.0256816 -0.0249413 0.0565678 0.0669443 
8 1 0.0418488 0.0369562 -0.00390583 0.0559673 
94 1 -0.00733882 -0.0235773 0.0162374 0.0295534 
48 1 -0.00834798 0.00319486 -0.00362138 0.00964419 
1270 1 0.0274216 -0.0301775 0.0078478 0.0415237 
3866 2 0.011741 0.00887541 -0.00703821 0.0163144 
2206 1 0.0158059 -0.0116508 -0.00269463 0.0198199 
3490 2 -0.025916 -0.0258004 -0.0157988 0.0398359 
3072 1 0.00721439 -0.0188328 0.0496599 0.0535988 
3002 1 0.0488289 -0.0236828 0.0201036 0.057873 
92 1 -0.00775688 0.066818 0.0301505 0.0737147 
335 1 -0.0250119 0.0350793 -0.0292292 0.0520624 
4034 2 -0.0591641 -0.0485414 0.0165031 0.078288 
1186 1 0.0132993 0.00718988 0.0053879 0.0160497 
1114 1 0.0529235 0.0192191 0.0118907 0.057547 
1821 1 -0.0132647 -0.0215527 -0.0228828 0.0341188 
1922 1 -0.0108768 -0.0450813 -0.0088857 0.0472185 
451 1 -0.0291227 -0.0246029 -0.00969507 0.0393374 
3960 2 0.00307387 -0.0123354 0.00369188 0.0132379 
100 1 -0.0171265 0.0238934 -0.0155647 0.0332636 
1180 1 -0.0135067 -0.0323552 -0.0261319 0.0437283 
165 1 0.0444307 0.00457851 -0.012677 0.0464301 
388 1 -0.0358894 -0.0335723 -0.0201295 0.0531069 
3742 2 0.0465085 -0.0186686 0.0285141 0.0576594 
323 1 -0.0310516 0.0420497 -0.0565378 0.0769993 
288 1 -0.0205805 0.00365964 0.0144248 0.0253974 
3942 2 -0.0221849 0.0271908 0.0505019 0.0614976 
66 1 0.0173918 0.0249638 0.0219298 0.0375044 
340 1 -0.00569831 -0.0460371 0.0141531 0.0484994 
138 1 -0.0163575 0.0281692 0.0081258 0.0335723 
879 1 0.00426981 0.0034687 -0.0231889 0.0238325 
3808 2 0.0197064 -0.0244122 0.00813413 0.0324108 
834 1 -0.0249192 0.00684889 0.0129985 0.0289281 
18 1 -0.019182 -0.028039 -0.0443499 0.0558663 
3679 2 -0.00112752 -0.0124617 0.00183943 0.0126471 
52 1 0.00300242 0.00539057 -0.00720286 0.0094844 
407 1 -0.0454121 -0.0039275 -0.0343968 0.0571036 
360 1 0.0337585 0.00209214 -0.0725802 0.0800744 
2885 1 -0.028373 -0.032413 -0.0218612 0.0483067 
3526 2 0.00107911 -0.0642895 -0.016632 0.0664149 
310 1 -0.0429296 -0.00510154 0.0113779 0.0447039 
326 1 0.0201483 -0.016929 0.0217134 0.0341177 
227 1 -0.00598193 -0.00408241 0.000669 0.00727304 
2068 1 -0.0240206 -0.0480091 -0.0669822 0.0858398 
456 1 0.00217183 -0.00140305 0.0128992 0.0131557 
279 1 -0.0220437 0.0136841 0.0286155 0.0386268 
305 1 -0.0582431 0.00466543 -0.00719819 0.0588714 
49 1 0.0128545 0.0147774 0.0167529 0.0257734 
3512 2 -0.00898304 -0.0468949 0.0306546 0.0567409 
11 1 -0.0112834 -0.0415424 -0.00893983 0.043966 
189 1 -0.000544519 0.0285304 0.0382399 0.0477134 
2271 1 -0.0196857 -0.0178623 -0.0198876 0.033198 
319 1 -0.0401788 -0.0174274 -0.010995 0.0451546 
3566 2 -0.0176782 0.0219649 -0.0131993 0.0311319 
71 1 -0.0306477 0.00994706 -0.00418394 0.032492 
1560 1 -0.0169216 -0.0171547 0.033096 0.0409386 
190 1 0.00951282 -0.0213894 0.00847769 0.0248972 
123 1 0.0276229 0.013087 0.02478 0.039349 
27 1 -0.0234495 0.00165063 -0.0186873 0.0300303 
162 1 -0.00431117 5.67437e-05 -0.0436618 0.0438741 
255 1 -0.039254 0.0119797 -0.0235823 0.0473341 
304 1 -0.0437744 0.00635032 -0.0207816 0.0488713 
321 1 -0.00132111 -0.0428906 0.0656549 0.0784342 
682 1 -0.0265293 0.00903161 -0.000549957 0.0280299 
3469 2 0.0519707 0.0458227 -0.0414885 0.0807588 
3539 2 0.0271512 0.0387542 0.0196738 0.0512458 
128 1 0.0389662 -0.0185745 -0.00555076 0.0435223 
3562 2 0.0541872 0.0192629 0.0164798 0.0598239 
560 1 -0.0390258 -0.0267887 0.0163793 0.0500892 
212 1 0.0175009 0.0158956 0.0138015 0.0273758 
355 1 0.00481084 0.0331203 0.0594238 0.0682003 
156 1 0.0525027 0.0128442 0.0278937 0.060824 
3620 2 -0.018679 -0.0120347 0.0113946 0.0249715 
1823 1 0.0649378 -0.0591902 -0.0383254 0.0958605 
1805 1 0.00820683 0.0405643 0.0438682 0.0603095 
2599 1 0.00924873 0.0231651 -0.0173879 0.0304057 
327 1 -0.0173443 0.0136136 -0.00948228 0.0240015 
137 1 0.0329415 -0.010847 0.0493828 0.0603445 
2334 1 -0.00585493 0.0231452 0.00826527 0.0252645 
3698 2 0.0143581 -0.0420739 0.0146623 0.0468119 
555 1 0.0166027 -0.0179387 -0.0154108 0.0288953 
4178 2 0.0262532 -0.00411483 0.0129742 0.0295719 
290 1 -0.00305832 0.0353775 -0.0179256 0.0397775 
284 1 -0.0281995 -0.0133153 -0.0347693 0.0467056 
3543 2 0.026436 0.000695577 0.0108205 0.0285732 
366 1 0.0128642 -0.0238313 -0.00425783 0.0274144 
55 1 -0.0135428 0.00586134 0.00133508 0.014817 
273 1 -0.0100537 -0.0192312 0.00341575 0.0219677 
3468 2 0.0238502 0.00830116 0.00378643 0.0255358 
316 1 0.0291005 -0.031957 0.0571044 0.071617 
81 1 -0.0417989 0.0244976 0.0275074 0.055713 
322 1 0.0182626 0.00479047 -0.0181061 0.0261592 
239 1 -0.0190804 0.0121502 -0.0224913 0.031899 
734 1 -0.0380457 -0.0445284 -0.0175773 0.0611491 
384 1 0.0434537 -0.0145875 -0.0095655 0.0468243 
3476 2 -0.0140852 0.0389078 0.00643432 0.0418762 
311 1 0.0311024 -0.0256103 -0.027595 0.0488337 
3471 2 -0.0236613 0.00847359 -0.00962383 0.0269124 
1938 1 -0.00787711 -0.0220013 -0.0118864 0.0262182 
139 1 0.0540245 -0.0214003 -0.0137342 0.0597096 
727 1 0.00218007 -0.0124846 0.0210549 0.0245749 
1885 1 0.0046655 0.0304674 -0.0430983 0.0529858 
2184 1 0.018833 0.096309 -0.0611896 0.115647 
2494 1 -0.0528997 -0.0454194 -0.0415771 0.0811785 
2091 1 -0.025504 -0.0154215 -0.0179856 0.0348103 
281 1 0.0328457 0.0257165 0.039987 0.0577853 
863 1 0.00129953 0.0573407 0.0118956 0.0585761 
176 1 -0.0488825 0.0285773 -0.0279175 0.0631312 
3710 2 -0.00148818 0.032272 -0.0107839 0.0340586 
3572 2 0.00444463 -0.0308493 -0.00270453 0.031285 
4197 2 -0.0378323 0.00803842 0.00310452 0.0388013 
343 1 0.00606021 -0.0199502 -0.0502022 0.0543598 
282 1 -0.000302179 -0.00818747 0.00590062 0.0100967 
1038 1 -0.00695371 0.00199859 -0.00687114 0.00997802 
408 1 0.0742145 0.063077 -0.0186147 0.0991615 
412 1 0.0578911 -0.0270426 -0.00137661 0.0639107 
820 1 0.0345965 -0.00182312 9.22057e-05 0.0346446 
585 1 -0.0173193 -0.0214612 -0.0232729 0.0360856 
3609 2 0.0316254 -0.00996058 -0.00151129 0.0331913 
719 1 -0.0268071 0.0295915 -0.00795925 0.040714 
608 1 0.00555338 -0.0404846 -0.0112153 0.0423748 
106 1 -0.00448606 0.0351884 0.00992685 0.036836 
1047 1 -0.0563548 -0.00990237 0.00214795 0.0572585 
3573 2 -1.68094e-05 0.00932425 -0.0235282 0.0253084 
751 1 -0.0271241 -0.00577255 -0.00191297 0.0277974 
259 1 0.0304472 -0.0406028 0.011684 0.0520782 
245 1 -0.0383731 0.00191126 -0.0408269 0.0560623 
613 1 -0.0190834 0.00422816 0.0730598 0.0756293 
4296 2 -0.016035 0.0144303 0.0141627 0.0258058 
272 1 -0.0381308 -0.0439491 0.000558527 0.0581876 
4239 2 -0.000469534 -0.0488298 -0.0227939 0.05389 
88 1 0.0249137 0.0479472 0.0244842 0.0593219 
4 1 0.0711072 -0.00121756 -0.0267368 0.0759775 
361 1 0.0246339 0.0488781 -0.0638434 0.0840945 
358 1 -0.00489679 -0.0148173 0.0164986 0.0227098 
194 1 -0.000852593 0.014639 -0.0348893 0.0378456 
2373 1 -0.00552503 -0.0279774 -0.0230144 0.0366459 
1982 1 -0.00718341 -0.0173573 -0.0397097 0.0439288 
3953 2 -0.0159359 0.0107026 0.00921799 0.0212948 
414 1 0.00409963 0.00482437 -0.0145359 0.0158548 
3186 1 0.0286007 -0.0357715 0.0242419 0.0518196 
177 1 0.0359511 -0.00746212 0.049102 0.0613121 
1962 1 -0.0195064 0.0211023 0.0194834 0.034719 
706 1 0.0262318 -0.00366674 -0.00192131 0.0265565 
1544 1 -0.0151914 -0.00892867 -0.0106264 0.0205772 
4160 2 -0.00568761 0.00216999 -0.00539284 0.00813268 
19 1 -0.00874384 -0.0407639 -0.0348474 0.0543369 
3624 2 0.0116742 -0.0188536 -0.0227063 0.0317383 
115 1 0.0647594 -0.0373016 -0.00552849 0.0749384 
1102 1 -0.0468017 0.0114568 -0.0144683 0.0503089 
1492 1 0.0243677 0.00829307 0.025276 0.0360755 
649 1 0.0357385 0.0635399 -0.0310105 0.0792226 
113 1 -0.0011143 0.0219572 -0.000280109 0.0219873 
1150 1 0.0284615 -0.0110757 0.0189591 0.0359469 
620 1 -0.0634186 0.0309314 0.0213339 0.0737144 
739 1 -0.0226143 -0.00852432 0.0142441 0.0280529 
2412 1 0.000453695 0.0488224 0.00775337 0.0494363 
3746 2 0.0370085 0.00794343 -0.0635348 0.0739554 
1225 1 0.0222388 0.0384222 0.0384062 0.0587015 
241 1 0.0260848 0.0389929 -0.00926915 0.0478203 
83 1 0.0193597 0.0349223 -0.0133939 0.042116 
1006 1 0.00499208 0.00290912 -0.00510096 0.00770737 
4046 2 -0.0653694 -0.00117978 -0.0236251 0.0695175 
96 1 0.0282102 -0.0409969 -0.00932291 0.0506308 
411 1 0.02744 0.0253617 0.0204824 0.042611 
2454 1 -0.00321916 -0.00624155 -0.0215955 0.0227087 
404 1 -0.0118654 0.0180436 0.0351326 0.0412391 
226 1 0.0409142 -0.00588352 0.0437105 0.0601597 
534 1 0.0207935 -0.00570471 0.0448926 0.0498022 
3538 2 0.0169002 0.0210442 0.0141628 0.0304804 
761 1 0.0346538 0.0152873 0.00341979 0.03803 
246 1 0.0506399 -0.0431169 0.0260509 0.0714291 
2229 1 0.0249395 -0.0196894 0.0205324 0.0378316 
146 1 -0.00287911 0.0344283 -0.0140197 0.0372848 
3608 2 0.0261763 -0.0275422 -0.0160969 0.041266 
503 1 -0.0215506 -0.00299283 0.0249853 0.0331308 
505 1 0.0313815 -0.00773052 -0.0191588 0.0375715 
1430 1 -0.0348781 -0.0195465 0.00679101 0.0405545 
97 1 -0.00103814 0.0237182 -0.0143658 0.027749 
1723 1 0.0174068 -0.0217243 -0.0447292 0.0526844 
3561 2 -0.00146885 0.037313 -8.92558e-05 0.0373421 
20 1 -0.0229375 -0.0447654 -0.024394 0.055903 
263 1 -0.0390708 0.0383973 0.0242621 0.0599126 
817 1 0.0387368 -0.0248476 -0.00558326 0.0463586 
1034 1 0.00889633 0.0101428 0.00970115 0.0166173 
353 1 0.0226656 -0.0128651 0.0165828 0.0308906 
1260 1 0.0226366 0.0286954 -0.0142286 0.0392211 
998 1 0.00946061 0.0146515 -0.022335 0.0283376 
1932 1 0.0353741 -0.0436141 0.00380611 0.056285 
36 1 0.0266834 -0.0362959 0.0313205 0.0548669 
38 1 -0.0335028 -0.023822 -0.033388 0.0529592 
3130 1 0.00549444 0.024134 -0.0188712 0.0311249 
1973 1 0.0404552 -0.0419563 0.0659688 0.0880274 
307 1 -0.0239871 -0.0258992 -0.0492117 0.0605635 
2714 1 0.06016 0.0234743 0.00996175 0.0653415 
28 1 -0.00563421 -0.0155933 -0.0198055 0.0258293 
1937 1 -0.00370144 -0.00256372 -0.0199124 0.0204151 
562 1 -0.0339622 -0.041372 -0.00238115 0.0535794 
3011 1 -0.0442508 -0.0204666 0.0148932 0.0509786 
410 1 0.0520729 -0.00706617 0.0138916 0.0543552 
693 1 0.0312776 0.0588076 -0.00403444 0.0667301 
367 1 -0.0223211 0.00170549 -0.00811848 0.0238128 
318 1 0.0559562 0.0160986 0.000207963 0.0582263 
735 1 0.0312487 -0.0273332 0.0245269 0.0482198 
600 1 -0.0247356 0.0305389 0.0374922 0.0543152 
3590 2 -0.0401636 0.0163786 -0.0613299 0.0751181 
3636 2 0.0258591 -0.0676368 0.0151461 0.0739786 
26 1 -0.018906 0.0377554 0.0220167 0.0476198 
1199 1 0.0292296 -0.0118693 -0.0115646 0.0336005 
614 1 -0.000959953 -0.0246589 -0.0084392 0.0260807 
459 1 0.0400734 -0.00550319 -0.0212006 0.0456687 
3645 2 0.0307406 0.0444742 0.0148921 0.0560777 
574 1 0.00638944 0.0365791 -0.032632 0.0494339 
780 1 0.0413926 -0.00868439 -0.00789449 0.0430243 
161 1 0.0092097 0.0471271 -0.0293221 0.0562634 
309 1 0.05159 0.0194342 0.00926671 0.0559025 
365 1 -0.0132607 -0.0239623 0.00164643 0.0274363 
191 1 -0.0209543 0.0450114 -0.00170106 0.049679 
1766 1 0.0285915 0.0626845 -0.026137 0.0736883 
2775 1 -0.0236027 -0.04496 -0.019963 0.0545619 
1030 1 -0.010918 -0.00959801 0.0357661 0.0386075 
1505 1 0.0234875 0.0534153 0.0443957 0.0733201 
3872 2 -0.00166599 0.0242583 -0.00420356 0.0246761 
580 1 -0.0198476 -0.0324156 -0.02357 0.044724 
2054 1 -0.0713108 -0.0267206 -0.0300756 0.0818765 
2064 1 0.0189674 0.00178591 -0.0262077 0.0324006 
529 1 0.0107667 0.0151184 -0.0326301 0.0375394 
402 1 0.0061728 0.028571 -0.0248425 0.0383609 
124 1 0.0123797 -0.0271451 -0.00298893 0.0299841 
744 1 0.0131832 0.0324544 -0.00634841 0.0356003 
185 1 0.0473879 -0.0273095 0.0632191 0.0835947 
315 1 -0.00172589 -0.0280376 -0.0316477 0.0423162 
655 1 -0.0302296 0.0158356 0.0240637 0.0417571 
765 1 -0.015646 0.0584547 0.0192572 0.0635026 
140 1 0.0137808 0.0276105 0.0169848 0.035224 
59 1 -0.0184144 -0.0195438 0.0114875 0.0292064 
54 1 0.012631 0.0159588 0.0603799 0.0637178 
3506 2 0.0268909 0.0116553 -0.00907913 0.0306822 
666 1 -0.0300694 -0.0339325 0.0278131 0.0531898 
43 1 0.00816363 0.0806174 0.0214641 0.0838243 
334 1 0.0157452 0.0288106 0.00788427 0.0337658 
267 1 0.0333746 0.0273 0.0191004 0.0471591 
99 1 0.0419156 -0.0221618 0.0535298 0.0715088 
1189 1 -0.0395617 -0.0340353 -0.0531115 0.0744605 
201 1 0.0182613 -0.0186549 -0.0267417 0.0373711 
380 1 0.0277624 0.037808 -0.0506674 0.0690462 
1777 1 0.0202825 -0.0108672 -0.0259484 0.0346814 
2597 1 0.0846285 -0.0018 -0.0409798 0.0940455 
2484 1 0.0682056 0.00275555 -0.0408947 0.0795737 
308 1 -0.0372538 -0.0233001 -0.0194028 0.0480334 
3918 2 -0.0138009 0.0249955 -0.0148954 0.0322042 
89 1 -0.0254728 -0.0240588 -0.0245774 0.0427988 
300 1 -0.00323968 0.0232999 -0.00698774 0.0245399 
3582 2 0.0104144 0.0664563 -0.00222141 0.0673041 
712 1 -0.0343541 0.0156499 0.0353641 0.0517276 
3836 2 -0.000827853 0.00949514 -0.0238797 0.0257115 
268 1 0.0233192 0.0129073 -0.0160836 0.0311298 
788 1 0.0193981 -0.00820499 -0.0455006 0.0501389 
4091 2 -0.0146241 0.0388176 0.04374 0.0602815 
371 1 0.0328063 -0.00702126 -0.0117174 0.0355365 
3505 2 0.00164855 -0.0143489 0.0481586 0.0502778 
266 1 -0.009558 -0.00713373 -0.00652733 0.013596 
3571 2 -0.0566205 0.0626624 -0.00819997 0.084851 
637 1 -0.0160361 0.00446298 -0.00156693 0.0167191 
157 1 0.0537741 0.00601837 0.000983357 0.0541187 
257 1 0.00446937 0.0310754 0.0439323 0.0539972 
571 1 -0.0345211 -0.00740796 -0.035577 0.0501229 
665 1 -0.029729 0.0289631 0.0473036 0.062931 
448 1 -0.0444665 -0.00512485 0.00622084 0.0451911 
827 1 0.0626414 0.0356056 -0.00404322 0.0721669 
3475 2 -0.0168531 -0.0151314 0.013278 0.0262544 
73 1 -0.00750927 0.0528566 -0.0139032 0.055168 
373 1 0.0101893 -0.0357312 0.02109 0.0427239 
247 1 -0.00871777 -0.00117501 -0.00155074 0.00893224 
107 1 0.0188639 0.00448946 0.02385 0.030738 
675 1 0.00954214 0.0222725 -0.0537708 0.0589781 
434 1 -0.00213706 0.0287527 0.0191997 0.0346398 
159 1 0.00211591 -0.00157516 -0.00624548 0.0067797 
32 1 0.00159475 0.0249497 -0.00682799 0.0259162 
3579 2 -0.00620739 -0.0469768 -0.00404766 0.0475577 
394 1 -0.0211388 -0.00400127 0.0138893 0.0256081 
260 1 -0.0362369 -0.00456741 0.00944153 0.0377242 
3972 2 -0.0164228 0.00503848 0.0590606 0.0615081 
1801 1 -0.0392985 -0.00536073 0.0310493 0.0503703 
2122 1 -0.00468552 0.0251652 0.0223942 0.0340109 
1966 1 0.0226303 0.015022 -0.0264038 0.0378808 
291 1 -0.00014075 -0.00854899 0.0156696 0.0178505 
2047 1 0.0279597 -0.00516941 0.014785 0.0320479 
1899 1 -0.0260055 0.0915294 0.0126451 0.0959886 
622 1 -0.0420001 0.000865848 0.00798755 0.0427617 
1993 1 -0.00584075 0.0157219 -0.00135741 0.0168266 
62 1 0.0329915 0.0261734 0.00160135 0.0421432 
2187 1 0.026939 0.00279874 -0.0470388 0.0542789 
4318 2 0.0179624 -0.0252839 -0.00473346 0.031374 
44 1 -0.0304158 -0.0386667 0.016691 0.0519501 
824 1 -0.029497 -0.0060202 0.0010046 0.0301219 
1282 1 -0.0290607 -0.00805369 0.0450527 0.0542138 
3626 2 0.00589956 0.0146581 -0.00358381 0.0162021 
819 1 0.0270784 -0.00748252 0.00310255 0.028264 
773 1 -0.0286034 -0.0306784 0.00741303 0.0425943 
270 1 0.0345803 -0.0405 0.0374871 0.0651255 
14 1 -0.0308262 0.0355144 -0.0294624 0.0554938 
3540 2 0.0211482 -0.0375508 -0.00181829 0.0431349 
997 1 0.038353 0.0188966 0.0211067 0.0476815 
4275 2 -0.00639335 -0.0396104 -0.0266934 0.0481913 
164 1 0.0157141 0.02791 0.070993 0.0778839 
234 1 -0.0396887 -0.0306926 0.01518 0.0524181 
1125 1 -0.000637507 0.0473575 -0.0286425 0.0553491 
3985 2 -0.0411379 -0.00691642 0.0390674 0.0571526 
328 1 0.0059055 -0.00162677 -0.0232797 0.0240721 
3474 2 0.00441104 0.0160762 -0.00319767 0.0169743 
543 1 -0.0186635 -0.0265932 0.002529 0.0325872 
293 1 0.0202078 -0.0139356 0.00136717 0.0245851 
3458 2 0.024986 -0.0352842 0.0172845 0.0465621 
390 1 -0.015929 -0.0346567 0.0294109 0.0481645 
3706 2 0.0739179 -0.0110323 -0.0415132 0.0854921 
2169 1 0.0268394 0.00202391 0.0170235 0.0318473 
1786 1 -0.0317729 0.0243496 -0.0343658 0.0527582 
1478 1 0.0189477 -0.0146579 0.0416012 0.0480055 
87 1 -0.0215112 -0.0224796 0.000408365 0.0311164 
4090 2 -0.00509246 -0.0358383 0.0420888 0.0555138 
142 1 -0.0146113 0.0115581 0.0365636 0.0410363 
1650 1 -0.0352367 -0.0112923 -0.0376365 0.0527792 
153 1 -0.00126435 0.0180326 0.0132871 0.0224348 
374 1 0.0119644 -0.0235845 0.0170674 0.031475 
602 1 -0.0109891 -0.00691429 0.00201563 0.0131389 
1277 1 -0.0297843 -0.0015432 0.00977822 0.0313863 
76 1 -0.0421246 -0.010744 0.0105917 0.0447448 
1370 1 0.0158078 -0.0263448 0.0484324 0.0573553 
221 1 0.019201 -0.0169068 -0.0426751 0.0497563 
604 1 4.81387e-05 0.0385046 0.0324115 0.05033 
1161 1 -0.0275876 0.00246479 0.0452981 0.0530949 
1718 1 -0.0493609 -0.000529259 -0.0233621 0.0546129 
178 1 0.0371265 -0.0468684 -0.0014977 0.0598102 
295 1 -0.0254808 -0.0252097 0.00462282 0.036141 
1472 1 -0.0324007 -0.0411374 0.0235074 0.0573994 
4159 2 -0.00949557 -0.0291446 -0.0182693 0.0356839 
3467 2 0.0466141 -0.00188782 0.0131944 0.0484823 
3531 2 0.0383871 -0.00106617 0.0628223 0.0736298 
2720 1 -0.0756964 0.020304 -0.0056618 0.0785764 
1851 1 0.0165543 0.0290317 0.00132444 0.033446 
732 1 -0.0362337 -0.0368777 0.00161631 0.0517248 
4009 2 0.0330657 0.0367802 -0.0166146 0.0521745 
3878 2 0.00361261 0.00560756 -0.0111599 0.0130015 
3185 1 -0.0205945 -0.0112568 -0.0027224 0.0236275 
110 1 -0.049349 -0.0056839 0.00881555 0.0504514 
2963 1 -0.0068625 0.013706 -0.00193514 0.0154497 
2608 1 -0.0147378 0.00230735 0.00971388 0.0178013 
3301 1 0.00292378 -0.0168343 -0.00291125 0.0173325 
3759 2 -0.0106685 0.0310235 -0.00722382 0.0335925 
4171 2 0.0111224 0.00775857 0.00399198 0.0141364 
2118 1 -0.0178905 -0.00729563 -0.0528494 0.0562704 
1742 1 0.0357982 -0.0550284 0.00621714 0.0659415 
642 1 0.0255757 -0.0487782 0.0406849 0.068474 
3366 1 -0.0414194 0.00957109 0.0285401 0.0512026 
144 1 0.0607377 0.0239034 0.0049513 0.0654595 
681 1 0.0272698 -0.0246617 -0.02361 0.0436953 
1666 1 0.0504159 -0.0163767 -0.0261664 0.0591155 
183 1 -0.0438398 -0.0181483 -0.00743583 0.0480269 
694 1 -0.0502863 0.0128045 0.0431358 0.0674786 
444 1 -0.00770172 0.0478625 -0.0333517 0.0588427 
869 1 -0.00135353 -0.0526663 0.0337456 0.0625646 
920 1 -0.00520545 -0.0329068 -0.0185231 0.038119 
53 1 0.0183747 0.00406587 0.012855 0.0227906 
1450 1 -0.0768113 -0.0397939 0.0129301 0.0874684 
1579 1 0.0596352 -0.0289715 0.0344591 0.0747203 
51 1 0.0290342 0.0058072 0.0257098 0.0392136 
4187 2 -0.035323 -0.0159943 -0.093658 0.101367 
1694 1 0.0145082 -0.042072 0.00973101 0.0455547 
1590 1 0.002381 0.0307934 -0.0032458 0.0310554 
2005 1 -0.0170423 0.00662779 0.0870065 0.0889072 
736 1 -0.0107521 -0.0156359 -0.0441749 0.0480782 
363 1 0.00665436 -0.00235607 0.0226829 0.023756 
230 1 0.00431725 0.00246357 0.0878562 0.0879967 
2538 1 -0.0125848 0.0154572 -0.0379226 0.0428418 
357 1 -0.0560712 -0.000556094 0.0131685 0.0575995 
3849 2 0.0497201 0.00549107 0.0335927 0.0602554 
4102 2 0.0474388 -0.0498996 0.0193426 0.0715161 
1032 1 0.0349844 -0.0137599 0.000242202 0.0375939 
78 1 -0.00254662 -0.000119964 -0.000725387 0.00265064 
564 1 0.0289 -0.000823281 0.0589307 0.0656408 
797 1 0.0652296 -0.0145051 -0.0221041 0.0703839 
1476 1 0.058068 -0.0178103 -0.0155934 0.0627077 
872 1 -0.0325218 -0.0258188 -0.00685047 0.0420857 
475 1 -0.0217949 -0.00419878 0.000808934 0.0222104 
4119 2 0.0211828 -0.0204348 -0.01033 0.0311929 
576 1 -0.0609688 0.0277206 0.0389469 0.0774757 
507 1 0.027612 0.00414722 0.0192197 0.0338972 
248 1 0.054832 -0.0266203 -0.0058661 0.061234 
3597 2 -0.0239634 0.00864926 -0.0108016 0.0276718 
539 1 -0.00210704 0.0194697 0.0539912 0.0574331 
63 1 0.0471265 0.00535593 0.00193893 0.0474695 
57 1 -0.0701032 0.00428736 -0.00924304 0.0708398 
854 1 -0.00594769 0.00635496 0.00820853 0.0119641 