ITEM: TIMESTEP
3600
ITEM: NUMBER OF ATOMS
4320
ITEM: BOX BOUNDS pp pp pp
0.0000000000000000e+00 1.9309999999999999e+01
0.0000000000000000e+00 1.9309999999999999e+01
0.0000000000000000e+00 9.6549999999999994e+00
ITEM: ATOMS id type c_displacement[1] c_displacement[2] c_displacement[3] c_displacement[4] 
3196 1 0.0308882 0.0397517 -0.0206969 0.0544301 
381 1 -0.0279496 -0.129078 0.0608706 0.145422 
327 1 -0.0570627 0.0741408 0.0536629 0.107855 
484 1 -0.094405 0.296585 -0.27823 0.417477 
728 1 -0.0476583 0.0792291 0.0668462 0.114092 
817 1 0.0545713 -0.000624526 -0.0310922 0.0628104 
3006 1 0.036659 -0.069992 0.055524 0.0965696 
3679 2 -0.173491 0.140393 0.00252161 0.223194 
2945 1 0.0728956 0.154013 -0.0172141 0.17126 
3230 1 0.142893 0.0476789 -0.0125526 0.15116 
3651 2 0.0620581 0.140185 -0.0634757 0.165928 
66 1 0.0142524 0.0985834 -0.144733 0.175697 
400 1 -0.032413 -0.12184 -0.0802685 0.149461 
677 1 0.0201337 0.100604 0.0355611 0.108587 
4053 2 0.0752899 0.153724 0.0736832 0.186357 
3199 1 0.0363179 -0.00561549 -0.229374 0.232299 
59 1 0.0143703 -0.0766113 0.0654902 0.101807 
727 1 0.129545 0.0238726 -0.138993 0.191496 
688 1 0.0165297 0.077876 0.0580942 0.0985537 
58 1 0.00512006 -0.0087356 -0.0785954 0.079245 
3514 2 -0.0321433 0.109303 -0.210553 0.239401 
3152 1 -0.214157 0.0215495 0.110187 0.241803 
110 1 0.0653284 -0.0590521 0.00418526 0.0881616 
3346 1 0.0318166 0.0107321 -0.0729919 0.0803449 
1454 1 -0.0827172 0.109876 0.161937 0.212458 
608 1 -0.0457561 0.108483 0.146278 0.187775 
190 1 0.0189691 0.105256 -0.225279 0.249378 
3618 2 -0.128934 0.146456 0.185066 0.268929 
180 1 0.180411 0.0691437 0.0100294 0.193467 
106 1 -0.0819645 0.0480863 0.0252206 0.0983186 
217 1 0.130376 0.0462127 -0.117835 0.18171 
775 1 0.182737 0.0256309 -0.112917 0.216333 
3627 2 0.0554877 0.241123 -0.103949 0.268374 
3478 2 -0.00596695 0.0221299 -0.0251698 0.034042 
3118 1 0.0975932 0.101275 -0.16234 0.214791 
562 1 -0.0641575 -0.115934 -0.0339093 0.136773 
70 1 0.0591722 0.0473176 -0.024126 0.0795134 
121 1 -0.0296716 -0.0291346 0.0311052 0.0519304 
1118 1 -0.0851481 -0.134187 0.0322483 0.162161 
210 1 0.0181823 -0.112003 0.150658 0.188608 
4214 2 0.246529 -0.164563 0.0482413 0.300308 
226 1 0.236591 0.00624177 0.189383 0.303118 
65 1 -0.0979234 0.0239802 0.13352 0.167307 
3611 2 0.0196791 0.084826 0.0297548 0.0920221 
532 1 -0.112637 0.0352652 0.0442209 0.12604 
3578 2 -0.181148 0.0347417 0.033073 0.187391 
473 1 -0.115641 -0.0830968 -0.0227426 0.144205 
246 1 -0.0457501 -0.052543 0.0204523 0.0726095 
424 1 -0.00502408 -0.00851735 0.0215448 0.0237058 
3730 2 0.0383494 -0.0209473 0.012266 0.0453863 
4071 2 0.216222 0.127699 0.309434 0.398508 
2838 1 -0.00022828 0.0292062 -0.015711 0.0331646 
536 1 0.00498915 -0.00960303 -0.0633865 0.0643037 
894 1 -0.0334962 -0.00139193 -0.0922573 0.0981598 
289 1 0.0854746 0.0026506 0.0318054 0.0912388 
351 1 -0.057477 0.0908969 -0.0192939 0.109262 
3135 1 0.0323205 0.118441 -0.0266645 0.125634 
197 1 -0.0751767 0.0462858 -0.0819013 0.120423 
87 1 0.143507 0.134941 -0.0519383 0.203718 
303 1 -0.075802 -0.213851 -0.125846 0.259453 
1415 1 0.183364 0.181515 -0.0364982 0.26058 
527 1 -0.258896 -0.0279446 -0.0154927 0.260861 
3002 1 -0.142951 0.0658915 -0.0712173 0.172767 
3189 1 0.16605 -0.000876408 0.0356328 0.169833 
712 1 0.0155371 -0.00730471 0.00987661 0.0198068 
718 1 -0.0141768 -0.0923025 0.136198 0.165138 
3469 2 0.0881897 0.0701702 -0.132064 0.173615 
4289 2 -0.0174685 -0.0410254 0.151845 0.158257 
18 1 0.222894 0.0917984 0.0345397 0.243519 
4177 2 0.286446 -0.33013 0.137381 0.45816 
93 1 0.0276955 0.175804 0.0315608 0.180749 
569 1 0.189538 0.105357 0.0891978 0.23448 
639 1 -0.211268 0.124837 0.00725496 0.245502 
21 1 -0.0930644 0.00369116 0.223386 0.242025 
3353 1 -0.161574 -0.205095 0.0439857 0.264774 
167 1 0.0391601 0.0509993 0.133851 0.148494 
823 1 -0.0362894 -0.0147611 0.0659674 0.0767236 
2596 1 -0.0866584 -0.071259 0.120107 0.164357 
50 1 0.0300579 0.0473661 0.0807075 0.0982891 
2495 1 -0.0855154 0.0347784 0.186351 0.207965 
28 1 -0.120781 0.0639485 -0.131155 0.189418 
3055 1 -0.0392247 -0.0148413 -0.00862945 0.0428172 
12 1 -0.0180587 -0.0737481 -0.0524689 0.0922924 
232 1 -0.264678 -0.0223542 0.00206869 0.265629 
4170 2 -0.0250429 0.235902 0.0192095 0.238004 
738 1 0.156656 0.12412 0.0809571 0.215641 
2453 1 -0.0644212 -0.0216333 0.154986 0.16923 
3167 1 -0.11849 -0.164907 0.0986746 0.225767 
339 1 -0.0794208 0.0956076 0.0265396 0.127094 
390 1 0.112669 -0.0614015 0.124958 0.179106 
203 1 -0.154224 0.0271091 -0.0483193 0.163874 
3582 2 -0.0994211 0.275675 -0.0872672 0.305773 
3632 2 0.0566186 0.0793373 -0.111651 0.14821 
231 1 0.00347596 -0.0225814 0.0618934 0.0659757 
323 1 -0.0425969 0.0722219 -0.0366848 0.0915219 
3244 1 -0.0709862 -0.0212418 -0.0270987 0.0788961 
118 1 0.0374199 -0.145437 0.0175863 0.1512 
43 1 0.0455976 -0.0709823 -0.0226014 0.087341 
2960 1 -0.151527 -0.0803506 -0.15926 0.234052 
553 1 -0.0641675 0.0321972 -0.36005 0.367138 
2735 1 -0.0266412 -0.0466557 0.0171696 0.0564031 
2768 1 0.187761 0.0680677 -0.0815791 0.215737 
29 1 0.0218497 0.0835778 -0.1282 0.154589 
753 1 -0.0202017 -0.175207 -0.0663202 0.188425 
3467 2 -0.22496 0.209753 0.130786 0.334228 
3251 1 0.0141536 0.0288711 -0.260576 0.262552 
52 1 -0.103543 0.240762 0.0469798 0.26626 
546 1 -0.100186 0.131218 0.0435429 0.170737 
4187 2 -0.0748897 -0.124776 -0.349687 0.378759 
437 1 0.117365 0.154211 -0.203216 0.280807 
53 1 0.0896969 0.00913799 -0.166029 0.18893 
593 1 -0.155783 0.289367 0.172123 0.370983 
609 1 0.203103 -0.081451 -0.188277 0.288675 
3040 1 -0.0363824 -0.000770933 -0.130828 0.135795 
3916 2 -0.231696 0.0155645 0.042065 0.235997 
725 1 -0.0597476 0.0311181 -0.0906161 0.112913 
298 1 -0.0442274 0.0830896 -0.0949106 0.133671 
610 1 0.215341 0.00375494 -0.0557801 0.22248 
89 1 0.00771934 -0.0863917 -0.0648414 0.108294 
3149 1 0.131231 0.0628642 0.0654564 0.159555 
550 1 -0.086643 0.132081 0.107037 0.190812 
147 1 0.0493727 0.0693263 0.2702 0.283287 
247 1 0.0677148 0.0210344 0.174491 0.188348 
96 1 0.0366653 0.0875809 0.0689982 0.117369 
2936 1 -0.118776 0.203206 -0.0569415 0.242163 
3554 2 -0.156412 0.150766 0.140441 0.258687 
3786 2 -0.178462 0.0284063 0.0667605 0.192646 
5 1 -0.0229598 0.0191801 0.205189 0.207359 
2591 1 -0.0410173 0.162047 -0.0206549 0.168428 
3232 1 -0.0371908 0.0763517 0.135224 0.159682 
1215 1 0.159635 0.0859634 0.133643 0.225241 
859 1 0.136058 0.0360837 0.00143996 0.140769 
4034 2 -0.0126271 0.136165 -0.0472225 0.144673 
988 1 0.0104876 0.0256758 -0.210412 0.212232 
2461 1 -0.0580668 -0.105644 0.0119178 0.121138 
23 1 0.0688551 0.0971604 0.0971785 0.153704 
3743 2 -0.0279734 0.0150552 0.00752096 0.0326456 
3023 1 0.0340401 0.107287 0.0541403 0.124901 
151 1 0.118253 -0.148741 -0.0431808 0.194864 
3393 1 -0.0783478 -0.120162 -0.0302492 0.146602 
155 1 -0.305967 0.0951918 -0.0792079 0.330077 
1178 1 0.00585121 0.162757 -0.030381 0.165672 
737 1 -0.00838426 0.130627 -0.210762 0.248102 
623 1 0.0840615 0.153977 -0.106399 0.205173 
1133 1 0.10752 -0.10618 -0.0107498 0.151494 
559 1 0.00983479 0.0417728 -0.0734178 0.0850404 
3586 2 0.0593049 -0.115898 0.0509973 0.139822 
3712 2 -0.0335796 0.0330843 -0.112423 0.121906 
4228 2 -0.0599759 -0.0706236 -0.190844 0.212147 
215 1 0.0100276 0.112345 0.0255083 0.11564 
255 1 0.0590117 -0.092232 -0.246873 0.270066 
3808 2 -0.19873 -0.0750016 0.0296643 0.214473 
2500 1 0.0474981 -0.0944624 -0.0470729 0.115737 
3188 1 0.0961645 0.144319 -0.0824163 0.192011 
3491 2 -0.251941 0.126675 -0.270601 0.390827 
2931 1 -0.0612683 -0.213007 0.134579 0.259302 
189 1 0.414624 -0.2774 -0.245374 0.555943 
717 1 -0.0422263 -0.0213622 0.0387023 0.0611332 
529 1 -0.256279 -0.281461 -0.122506 0.399884 
825 1 0.0397016 0.0161987 0.0371104 0.056708 
691 1 -0.134016 -0.475918 -0.0498825 0.496937 
78 1 0.0906682 -0.0336055 -0.0360781 0.103207 
1480 1 -0.015402 -0.120174 0.124346 0.173611 
2968 1 0.0560685 -0.00812299 0.0261424 0.0623946 
3464 2 -0.148088 -0.324734 -0.0960098 0.369595 
98 1 0.105356 -0.383806 0.0236755 0.398707 
40 1 0.164056 -0.125463 0.0965183 0.227972 
216 1 0.0378915 -0.0129819 -0.094164 0.102329 
580 1 -0.0763868 -0.0748323 0.154661 0.188029 
1130 1 -0.0339711 -0.139469 -0.0833671 0.165999 
3041 1 0.0883346 -0.195724 -0.12855 0.250272 
604 1 0.0548051 -0.14071 0.0849724 0.173272 
721 1 -0.238261 -0.152625 -0.0586411 0.288966 
80 1 -0.127743 0.00566149 0.059142 0.140883 
140 1 0.0491676 -0.147278 0.22711 0.275113 
241 1 -0.042481 -0.0270169 -0.0311566 0.0592054 
3164 1 0.0977905 -0.000435627 0.10103 0.140606 
64 1 0.000524996 -0.155723 -0.0432242 0.161612 
193 1 0.0612112 0.0388108 -0.0957075 0.120054 
44 1 0.0870025 -0.0761564 0.0125722 0.116307 
2996 1 -0.0110285 -0.100154 -0.285096 0.302377 
4212 2 -0.158817 0.059521 -0.19275 0.256745 
3279 1 -0.0759922 -0.109806 -0.0795356 0.155429 
178 1 0.0263032 -0.0415176 -0.13509 0.143753 
330 1 -0.011153 0.109739 0.0576341 0.124453 
949 1 -0.0757017 0.101578 0.0528905 0.137281 
600 1 -0.133411 0.0728596 0.00791007 0.152215 
338 1 -0.143238 0.019059 0.021107 0.146034 
4101 2 -0.000587763 0.0166869 -0.0264432 0.0312736 
3841 2 -0.0629744 -0.0272886 0.00893337 0.0692116 
103 1 -0.113918 0.0956294 0.0621002 0.161179 
3493 2 0.294414 -0.0274735 0.219578 0.368305 
257 1 -0.0947003 0.0282552 -0.0613608 0.116326 
2494 1 0.0616086 -0.0759673 -0.00621118 0.0980063 
4217 2 -0.156603 0.123029 0.0558082 0.206822 
479 1 0.0105514 0.0218797 0.0505269 0.0560627 
3335 1 0.00645188 -0.123107 0.0172978 0.124484 
1457 1 0.0406944 0.0538635 -0.0565635 0.0880724 
3037 1 -0.0696624 0.0222568 -0.0798539 0.108281 
4253 2 0.103778 -0.0723804 -0.0438483 0.133908 
387 1 0.0283914 -0.088842 -0.0638115 0.113008 
3736 2 -0.126557 0.0896155 -0.0826917 0.175743 
3408 1 -0.0532658 -0.00867446 0.089932 0.104882 
3643 2 0.0707624 -0.0291335 -0.0580286 0.0960386 
174 1 0.0605792 -0.187405 0.0868694 0.21526 
237 1 0.0314551 -0.0183319 -0.051182 0.0628098 
508 1 -0.0238724 -0.112809 -0.0128952 0.116026 
3537 2 0.104 -0.071356 -0.0115523 0.126653 
747 1 0.0995055 0.0762949 -0.106773 0.16469 
497 1 -0.113668 -0.149875 -0.0664945 0.19951 
958 1 -0.0277324 -0.154556 0.0358683 0.161069 
3130 1 -0.0965555 -0.0871608 -0.0656513 0.145705 
4163 2 -0.125284 -0.157254 0.0577452 0.209188 
133 1 0.183021 -0.0406055 0.0170429 0.188244 
4204 2 0.0535737 -0.102758 -0.00640783 0.116062 
86 1 0.337954 -0.0518813 -0.0637283 0.347802 
759 1 0.204382 -0.0574042 0.028576 0.214205 
3411 1 -0.0305849 -0.0677639 0.0687673 0.101274 
835 1 0.171452 0.0388684 0.0921299 0.198481 
3057 1 0.225571 -0.0221391 0.00362273 0.226683 
3620 2 0.106354 0.16564 -0.0700471 0.208937 
704 1 0.374498 0.0830282 -0.13725 0.407407 
3599 2 -0.0442711 0.0784872 -0.0314622 0.0954466 
157 1 0.311294 -0.0199791 -0.0988322 0.327217 
54 1 0.250996 -0.190019 -0.0556172 0.319687 
493 1 0.110293 0.0794042 -0.00747562 0.136108 
204 1 0.055725 0.0471575 -0.0800914 0.108369 
254 1 0.138454 0.202272 -0.128764 0.276882 
3394 1 -0.0876143 -0.0319498 0.0930905 0.131768 
67 1 0.1208 -0.124362 -0.185913 0.254209 
2988 1 -0.129372 0.235329 -0.19945 0.33451 
3030 1 -0.29599 0.166048 -0.208564 0.398348 
4050 2 0.108452 0.145805 -0.163925 0.244729 
674 1 0.203464 -0.0346229 -0.108788 0.233304 
2004 1 -0.14791 -0.0290369 -0.165422 0.223797 
3479 2 -0.0042244 0.351483 -0.148815 0.381712 
3216 1 -0.0858748 -0.00705568 -0.033951 0.0926117 
234 1 -0.0381728 -0.0405807 -0.177425 0.185967 
1036 1 0.00962467 -0.0408094 -0.104583 0.112675 
3369 1 -0.0319182 0.0539339 -0.0148438 0.0644048 
3607 2 -0.112234 -0.0543476 0.0729207 0.144456 
3139 1 0.0610811 -0.0325526 -0.0273503 0.0744219 
644 1 -0.358606 -0.0632487 -0.0365992 0.365976 
2939 1 -0.0722298 0.0230814 0.0804825 0.110577 
3115 1 -0.186105 0.0252658 0.0459092 0.193342 
1278 1 0.159083 -0.0878737 -0.0163895 0.182477 
2934 1 0.101241 -0.0678942 -0.105601 0.161279 
563 1 -0.0636616 0.141958 0.0104832 0.155932 
4269 2 -0.0761543 0.207992 0.150843 0.267981 
3518 2 -0.20241 0.165967 -0.00208982 0.261762 
214 1 0.0426677 0.104033 0.0674603 0.131127 
640 1 -0.156569 -0.0087283 0.130435 0.203969 
199 1 0.137632 -0.0899017 -0.067178 0.177589 
245 1 -0.0254554 -0.165102 0.120895 0.206209 
2758 1 -0.08229 0.123615 0.052977 0.157667 
3056 1 -0.0826934 -0.113564 -0.0273307 0.143115 
3468 2 -0.13717 -0.0726479 0.119386 0.195822 
1102 1 0.119389 0.259352 -0.19909 0.348072 
249 1 -0.0412312 -0.0385352 0.0300375 0.0639314 
3096 1 -0.0628133 0.0357653 0.110384 0.131944 
240 1 0.167894 0.0424784 -0.0331384 0.176327 
181 1 -0.040562 -0.13239 0.0974426 0.169314 
46 1 -0.079731 -0.182811 -0.032622 0.202092 
3211 1 -0.0557065 0.0549874 0.0336144 0.0851866 
2684 1 -0.122614 0.096603 -0.0915808 0.180979 
3603 2 -0.0920288 -0.223963 0.307304 0.391234 
4089 2 0.0946233 0.149489 -0.021445 0.178215 
3701 2 0.287224 -0.0875621 0.0354319 0.302358 
3513 2 0.103998 -0.116672 -0.0724146 0.172255 
312 1 0.0553678 0.0608055 -0.157634 0.177796 
587 1 0.0493303 -0.00765346 0.0537857 0.0733822 
134 1 0.0879085 0.119948 -0.0025515 0.148734 
135 1 -0.00614462 -0.0591792 -0.135525 0.14801 
3512 2 -0.0196402 0.0883616 0.0761549 0.118292 
195 1 0.198577 -0.0131286 -0.142473 0.244753 
2995 1 0.17758 -0.245614 -0.214859 0.371517 
1179 1 0.0989597 0.133759 0.0139562 0.166971 
3003 1 -0.0151843 0.00457985 -0.018269 0.0241928 
191 1 0.0834103 0.0479683 0.00973075 0.0967105 
685 1 -0.0201947 -0.0506605 -0.111784 0.124378 
602 1 0.0156759 0.0204758 0.124041 0.126693 
3092 1 -0.0354684 0.0970815 0.0281133 0.107113 
4195 2 0.118211 -0.0155505 -0.0484069 0.128681 
182 1 0.163683 -0.16922 -0.194986 0.305691 
540 1 0.0159132 0.207047 -0.163246 0.264142 
427 1 0.0964272 -0.0145674 -0.152999 0.181436 
4173 2 0.318977 -0.0305475 0.0103886 0.320604 
2950 1 -0.0417136 -0.106548 -0.120406 0.166102 
6 1 -0.175235 -0.0453386 -0.123247 0.218981 
690 1 0.0919467 -0.0471568 -0.131646 0.167357 
902 1 -0.0363487 0.368905 -0.0849453 0.380299 
920 1 0.0239476 0.0530062 -0.128847 0.141367 
1331 1 -0.13542 -0.00600081 0.089921 0.162667 
742 1 -0.059233 -0.137295 -0.283866 0.32084 
154 1 -0.0695931 -0.0115278 0.0187755 0.0729973 
2926 1 -0.0983069 0.0200217 0.0827771 0.130066 
710 1 -0.064266 -0.163929 -0.218124 0.280323 
446 1 0.0265684 0.0267033 0.0827904 0.090957 
354 1 0.17667 0.0719412 0.0810886 0.207275 
2977 1 0.0744336 -0.0207412 0.0331845 0.0840938 
95 1 -0.00414215 -0.153896 0.137932 0.206703 
3007 1 -0.0126508 -0.0130738 0.0356104 0.0399884 
2994 1 0.00153927 -0.0113736 0.0804078 0.0812228 
4094 2 0.269805 -0.0692223 -0.0454435 0.282226 
3608 2 0.0782893 0.0117502 -0.0654599 0.102724 
3447 1 0.174639 -0.0937878 -0.0789128 0.213359 
1149 1 0.154895 -0.00458596 0.30608 0.343072 
205 1 -0.177876 0.0499251 0.064235 0.195598 
694 1 -0.221052 0.078064 0.0748218 0.246082 
861 1 -0.281303 0.00780557 0.0962082 0.297402 
3549 2 -0.13988 -0.0718063 -0.383049 0.414064 
3401 1 -0.0223936 0.0939002 0.0303453 0.101191 
1354 1 -0.0828596 -0.192007 0.154953 0.260275 
1077 1 -0.106487 -0.0539997 -0.041164 0.126293 
3290 1 -0.0548392 -0.028252 -0.11896 0.134004 
1324 1 -0.0668887 0.0231603 0.0361068 0.0794619 
3341 1 -0.324773 0.117603 -0.154382 0.378341 
512 1 0.150179 0.00655731 -0.111595 0.187217 
300 1 -0.00952812 0.0862134 0.0455613 0.0979764 
393 1 -0.209864 -0.0226975 -0.164776 0.267786 
2740 1 0.022393 0.163958 -0.0347425 0.169088 
286 1 -0.107866 0.0145762 0.0151487 0.109896 
3197 1 -0.0462353 0.0264857 0.00234153 0.0533355 
4006 2 -0.0282883 0.146333 0.037219 0.153619 
886 1 0.0594193 0.146036 0.183087 0.241616 
277 1 -0.188772 -0.14466 0.0491068 0.242844 
364 1 -0.0738771 0.0414076 -0.0410922 0.0941328 
1367 1 -0.0345974 0.00470275 -0.0662648 0.0749007 
411 1 -0.0780109 0.0295243 0.0183211 0.0853994 
3389 1 0.0377052 -0.0516795 -0.0753054 0.0988097 
3658 2 -0.0111713 0.184598 0.189663 0.264902 
2961 1 0.226169 -0.0395649 -0.227133 0.322966 
3392 1 -0.0467169 -0.00869871 -0.0739564 0.0879072 
221 1 -0.0239558 0.0596497 -0.0118142 0.065357 
357 1 -0.087083 0.0647456 -0.107453 0.152714 
265 1 0.00419486 -0.0866134 0.0931195 0.127243 
362 1 0.0202207 0.10109 0.0319887 0.107942 
478 1 -0.0884452 0.0500232 -0.10514 0.146217 
4159 2 -0.0508316 -0.0352737 0.210843 0.219734 
3535 2 0.0181447 0.103459 -0.0549755 0.118555 
2696 1 0.053358 -0.0249632 -0.0929183 0.110018 
1304 1 0.142568 -0.120559 -0.0923663 0.208306 
780 1 -0.0514412 0.132128 -0.153984 0.209321 
2710 1 -0.10873 -0.00204334 -0.0468052 0.118394 
3313 1 -0.126899 0.0415942 -0.00938255 0.133871 
160 1 -0.17052 0.169577 -0.0668682 0.24961 
3333 1 -0.114252 -0.0228391 -0.035795 0.121887 
3526 2 -0.035636 -0.0309963 0.00765011 0.0478457 
3612 2 0.125892 0.0737617 0.0982515 0.175906 
903 1 -0.078444 0.0453044 -0.00740593 0.090889 
3303 1 0.0222742 0.207016 0.201501 0.289749 
3249 1 -0.0618115 0.182521 -0.0856636 0.210886 
92 1 -0.149956 -0.065809 0.0633385 0.175583 
3379 1 -0.0735016 -0.0015194 0.054093 0.0912734 
3162 1 -0.096249 0.148627 -0.0064327 0.177187 
462 1 -0.101649 -0.0968027 0.102118 0.173584 
2966 1 0.0521746 0.0347924 -0.0455582 0.0775129 
3022 1 -0.00451332 0.114436 -0.13964 0.180597 
750 1 -0.0753124 -0.0671338 -0.0655725 0.120327 
3257 1 -0.103679 0.0430115 -0.107454 0.155389 
449 1 0.109324 -0.00284505 -0.217492 0.243439 
287 1 0.163123 -0.00602961 -0.0369028 0.167354 
3647 2 -0.263851 0.0131397 -0.0975678 0.28162 
2890 1 0.0735293 0.0461192 0.00487727 0.0869329 
1285 1 -0.0683772 0.191999 0.211232 0.293527 
3305 1 0.0148138 0.209191 0.0583962 0.217693 
3209 1 -0.0406601 -0.0911134 0.00185271 0.0997914 
4318 2 -0.156366 -0.104732 0.022583 0.18955 
3409 1 -0.0996155 -0.190957 0.0612703 0.223924 
943 1 -0.0106735 -0.00211098 0.0500249 0.0511944 
3321 1 -0.0375732 -0.241198 0.0186018 0.244815 
356 1 0.0141613 -0.04431 -0.0330195 0.0570456 
3337 1 -0.0168911 0.0969019 0.0515479 0.111052 
3883 2 0.0463148 0.124023 0.0383891 0.137842 
4014 2 -0.0944461 -0.194327 0.126488 0.250364 
3227 1 -0.0879047 -0.0921658 0.107657 0.166769 
373 1 0.0854482 0.047602 0.0533616 0.111422 
4297 2 -0.00642333 -0.0728991 0.0458514 0.0863591 
3404 1 0.0864327 -0.155862 0.019328 0.179268 
398 1 -0.0810395 -0.115513 -0.0315309 0.144585 
3221 1 -0.0629976 0.0116488 -0.130782 0.145631 
468 1 0.0837077 0.0487359 0.122072 0.155833 
309 1 0.00178881 0.0902061 -0.142223 0.168427 
836 1 -0.0941941 -0.225023 0.103167 0.264861 
394 1 0.0968593 0.00520273 -0.0506251 0.109415 
412 1 -0.0528974 0.00307392 -0.0633747 0.0826071 
3573 2 -0.0657691 0.194794 -0.0476422 0.211045 
1212 1 -0.0902242 0.044227 0.0499888 0.112229 
392 1 -0.0762731 -0.149287 -0.0829336 0.187035 
3360 1 -0.181242 -0.00306028 -0.187729 0.26096 
3319 1 -0.0972972 -0.00407158 -0.0428521 0.106394 
3588 2 -0.0195563 -0.00864065 -0.0574619 0.0613105 
2365 1 0.0171725 0.0263652 -0.126626 0.130477 
306 1 -0.0538956 0.0722092 -0.236939 0.253494 
3093 1 -0.0280209 0.0159854 -0.0166171 0.0362882 
2745 1 0.00477456 -0.0247056 -0.0191652 0.0316302 
355 1 -0.0916996 -0.0513588 0.0201455 0.107016 
3097 1 0.126425 0.0981112 -0.0743694 0.176465 
3531 2 -0.0683164 -0.0189305 0.0213703 0.0740418 
353 1 0.0214208 -0.0111789 0.0853369 0.0886916 
228 1 -0.082226 -0.0503231 0.0716778 0.12013 
3324 1 0.114251 -0.0159886 -0.180114 0.213892 
951 1 -0.0107576 0.0348804 -0.0734575 0.0820267 
2737 1 -0.0710033 -0.0250196 -0.037823 0.0842497 
2959 1 0.0144715 0.0218707 -0.0426535 0.0500707 
4284 2 -0.053163 -0.0407316 -0.0955766 0.116706 
4225 2 0.170682 -0.0803201 0.213718 0.28506 
3483 2 -0.00704268 -0.0733802 -0.15234 0.169238 
3482 2 -0.140699 -0.119202 -0.0802 0.20109 
1449 1 0.0117018 -0.0246094 0.0573038 0.063453 
3617 2 -0.0187179 -0.0357974 -0.0361697 0.0542223 
966 1 0.048173 0.0631222 0.0360268 0.0871951 
4257 2 0.694227 0.286766 -0.0266788 0.751597 
716 1 0.102587 0.0597002 -0.1299 0.175961 
3094 1 -0.0595599 -0.154777 0.0133182 0.166375 
3225 1 0.0902982 -0.113984 0.00781297 0.145627 
206 1 -0.0649165 0.00538981 -0.0910086 0.111919 
71 1 0.094945 -0.0201061 0.0237948 0.099925 
3676 2 0.0346572 0.0357401 -0.0101178 0.050802 
4185 2 0.0492711 -0.169215 0.0311886 0.178981 
3561 2 0.0369614 -0.0451594 0.0548765 0.0801058 
601 1 0.0095173 0.100813 -0.143354 0.175512 
2479 1 -0.230557 0.0588231 -0.1407 0.27643 
763 1 0.02583 0.111108 0.187131 0.219158 
388 1 -0.0357493 0.0971393 0.058395 0.118845 
1313 1 0.0274286 0.0501371 0.00926748 0.0578959 
444 1 -0.0775302 -0.0126922 0.0340757 0.085634 
3668 2 -0.0105362 0.00966281 -0.0203567 0.0248752 
838 1 -0.0701269 0.0215944 -0.0737722 0.10405 
460 1 -0.0472112 -0.0773728 0.0199817 0.0928155 
499 1 -0.0404085 -0.0538349 0.000524873 0.067315 
3548 2 -0.510607 -0.222686 -0.0816003 0.562998 
3631 2 0.156131 -0.0873385 -0.125525 0.218544 
291 1 0.00543738 -0.0143328 -0.0790521 0.0805247 
482 1 0.0443665 -0.0435974 0.0104161 0.0630684 
1314 1 -0.0394486 0.0779056 0.0977253 0.131056 
3672 2 0.116824 0.0781168 0.0213531 0.142148 
375 1 0.0470691 -0.101416 -0.0973192 0.148229 
94 1 0.0853232 -0.119706 -0.0200359 0.148361 
37 1 -0.0437759 -0.0227837 0.100813 0.112244 
626 1 0.15172 -0.0410472 -0.00233753 0.157192 
3281 1 -0.145288 -0.039133 0.0850586 0.172844 
3664 2 0.293018 -0.14969 0.104722 0.345302 
901 1 -0.156402 -0.199705 -0.272377 0.3722 
4116 2 -0.0112566 -0.0779665 -0.00455237 0.0789064 
4309 2 -0.0807322 -0.136741 0.0212436 0.160209 
436 1 0.0413352 -0.1063 -0.0597453 0.128755 
792 1 -0.124459 -0.0947224 -0.0625085 0.168433 
3293 1 -0.128552 0.0676587 -0.088563 0.170137 
318 1 -0.104394 -0.0682561 0.0378071 0.130332 
3095 1 -0.159405 0.152327 -0.0147923 0.22098 
3150 1 0.0441235 -0.00676359 0.0487381 0.0660911 
3320 1 -0.0340297 -0.192703 0.0105961 0.195971 
3350 1 -0.0705544 -0.102264 0.0336973 0.12873 
3314 1 -0.189081 -0.0485949 -0.238549 0.308252 
2861 1 0.0308428 0.0457216 -0.112298 0.12511 
3180 1 -0.00983116 -0.00856824 0.0246239 0.027864 
614 1 0.23679 0.028408 -0.000564544 0.238489 
334 1 -0.0822008 -0.108814 -0.00971923 0.136718 
100 1 -0.0632617 -0.00664021 0.0127394 0.0648724 
2873 1 -0.127186 0.0362496 0.242749 0.276437 
389 1 0.0818638 -0.184096 -0.140551 0.245657 
771 1 -0.0206483 0.0855574 -0.00276768 0.0880573 
483 1 -0.0272126 -0.097678 0.161942 0.191067 
772 1 -0.0416339 -0.0440826 -0.00228509 0.0606785 
4271 2 0.0571945 0.0500723 -0.0456949 0.0886931 
1172 1 0.107306 -0.101116 -0.0730781 0.164559 
652 1 0.103702 -0.0672463 -0.0839987 0.149439 
3568 2 -0.00777508 -0.0174106 0.0403058 0.0445885 
3433 1 0.100984 -0.0215209 -0.0152016 0.104365 
3560 2 0.139251 -0.0819251 -0.00119892 0.161567 
3419 1 -0.024284 0.00411897 -0.0106895 0.0268504 
917 1 -0.0169308 -0.116085 -0.0942608 0.150491 
248 1 0.160893 0.0309806 0.0144762 0.164487 
4264 2 0.248169 -0.090639 0.0708565 0.27354 
4028 2 -0.258145 0.144268 0.0460836 0.299292 
402 1 0.0461337 -0.0693045 0.212538 0.228263 
325 1 0.113913 0.0356457 0.0630129 0.134972 
292 1 0.131199 -0.0769729 0.068062 0.166645 
3444 1 0.0587313 -0.0402593 -0.0487639 0.0863024 
908 1 0.18784 -0.0553554 0.0779074 0.210755 
3504 2 0.325686 -0.206416 0.0241327 0.386343 
423 1 0.16067 -0.0604324 -0.0154456 0.172353 
502 1 0.0760969 -0.0641531 0.148764 0.178989 
3435 1 0.101095 0.0227185 0.0437924 0.112491 
430 1 -0.270065 -0.238669 0.202554 0.413432 
439 1 0.0647112 0.117939 0.141125 0.19497 
4182 2 0.0351239 -0.11735 0.0984791 0.157172 
874 1 0.00066924 -0.14641 0.23998 0.281117 
980 1 -0.0686182 -0.154801 0.326754 0.368022 
810 1 0.034336 0.0578964 0.108126 0.127367 
225 1 -0.232136 -0.243433 0.146358 0.366834 
3331 1 0.0627449 -0.112647 0.0051418 0.129045 
3380 1 0.0800188 -0.115732 0.141802 0.199762 
3312 1 0.0955594 -0.119598 0.0361175 0.157289 
4280 2 -0.245537 -0.0131772 0.00242873 0.245903 
416 1 0.0366207 -0.159002 -0.0719776 0.178336 
365 1 -0.0466373 -0.142471 -0.0698744 0.165395 
3799 2 -0.0704223 -0.205687 0.112905 0.244977 
2819 1 -0.0105468 -0.100008 0.225536 0.24694 
382 1 -0.0753191 -0.0720723 -0.102364 0.146102 
783 1 -0.297654 -0.120895 -0.0633289 0.327451 
4154 2 -0.0135118 0.187596 -0.0709972 0.201036 
187 1 -0.266106 -0.0166641 0.208668 0.338574 
2776 1 -0.124144 -0.036237 0.0507695 0.138933 
2973 1 -0.0662215 -0.116391 0.0823255 0.157193 
957 1 0.121123 -0.286804 -0.0389132 0.313754 
795 1 0.0753073 -0.297574 0.0631439 0.313382 
3266 1 -0.024636 -0.0285128 -0.137588 0.142655 
4256 2 -0.347769 -0.872289 0.135785 0.948825 
419 1 0.379294 -0.229999 0.61272 0.756432 
3291 1 0.191565 -0.220905 0.0022369 0.292406 
471 1 -0.0179885 0.260829 -0.280094 0.383155 
107 1 -0.236465 -0.0472582 -0.142353 0.280023 
4285 2 -0.0151848 0.269274 -0.22295 0.349922 
496 1 0.231043 -0.118757 0.236603 0.351376 
2993 1 -0.141276 0.324257 -0.0981111 0.367052 
517 1 0.10476 -0.117026 0.081413 0.176912 
279 1 -0.0956876 0.146334 0.0904919 0.196872 
308 1 -0.0550484 -0.0131376 -0.143812 0.154547 
781 1 0.013497 -0.289932 0.0132363 0.290548 
404 1 0.0554233 -0.0971904 -0.0150708 0.112893 
3678 2 -0.2206 0.0701428 0.135487 0.268219 
3322 1 0.116987 0.0763243 0.0125032 0.140241 
3863 2 -0.0821794 -0.105411 0.116399 0.177239 
274 1 -0.00875067 -0.176823 -0.0339931 0.180274 
1091 1 0.0514295 -0.0941816 0.111729 0.154914 
3396 1 -0.019734 -0.121493 -0.0102061 0.123508 
822 1 0.0153737 -0.0662648 0.296004 0.303719 
3383 1 0.078542 0.0959822 -0.0201683 0.125651 
329 1 -0.144432 0.0731019 -0.09507 0.187731 
2545 1 -0.0840866 -0.0780994 -0.0931967 0.147837 
3327 1 -0.059023 -0.0892476 0.00587114 0.10716 
3674 2 -0.0222638 -0.0801583 0.315569 0.326351 
1418 1 0.202568 -0.0769485 -0.15029 0.263708 
443 1 0.00801285 -0.053666 0.0104168 0.0552517 
855 1 -0.0925084 -0.131444 -0.139341 0.212723 
3476 2 0.042301 -0.100183 0.130379 0.169778 
307 1 -0.187317 0.0298856 -0.0447294 0.194888 
4307 2 0.0301091 -0.200674 0.0542367 0.210043 
2869 1 -0.0437671 -0.298358 0.0569713 0.306886 
177 1 -0.130175 0.109989 0.0220663 0.171843 
363 1 -0.000331444 -0.226836 -0.0261974 0.228344 
1450 1 -0.0534693 -0.138198 0.103256 0.180609 
3559 2 -0.150814 0.0845539 0.0111185 0.173257 
347 1 0.095256 0.134678 0.0550237 0.173895 
319 1 -0.18093 -0.138183 0.0723367 0.238878 
4237 2 0.015212 -0.130773 -0.0141723 0.132415 
295 1 -0.0410364 -0.0155953 0.0551523 0.0704909 
830 1 -0.00834799 -0.200816 0.0590303 0.209479 
937 1 -0.0737398 0.0462699 0.109781 0.140108 
268 1 0.0524954 0.0910168 0.183466 0.211423 
854 1 0.0464335 -0.112202 0.082357 0.146724 
442 1 -0.0470064 -0.11344 0.124399 0.174795 
875 1 0.0134558 0.0734123 0.0867629 0.114447 
314 1 -0.0846272 -0.0601366 0.217164 0.240704 
349 1 0.0628856 0.018507 0.102826 0.121944 
899 1 0.0683278 -0.0582371 -0.129893 0.1579 
474 1 -0.025638 0.0739183 -0.104062 0.130192 
3070 1 -0.0356522 0.0337253 0.180596 0.187145 
964 1 -0.193628 0.0359782 -0.056853 0.204984 
793 1 -0.00550848 -0.0997871 -0.0800675 0.128057 
3397 1 0.0322983 -0.0886753 -0.156617 0.182853 
4143 2 -0.11668 -0.0277725 0.349094 0.369123 
4098 2 -0.0684554 -0.263097 0.396446 0.480704 
1337 1 0.163248 -0.202148 -0.0156676 0.260307 
490 1 0.035522 -0.0639729 -0.138965 0.157053 
3278 1 0.0253679 -0.104644 -0.168519 0.199982 
3544 2 0.104671 -0.0194849 0.112407 0.154826 
1430 1 0.0108295 -0.139474 0.116911 0.182314 
3200 1 -0.0333828 -0.0780132 0.0526813 0.0998789 
757 1 -0.134038 -0.115701 -0.0474334 0.18331 
85 1 0.126451 -0.00561615 0.286473 0.31319 
699 1 -0.0755609 0.160203 0.103201 0.204999 
3240 1 -0.153529 0.0824612 0.145147 0.226801 
113 1 0.176903 0.0365157 0.00484424 0.180697 
504 1 -0.129621 -0.0382599 0.104983 0.171134 
647 1 0.219812 0.249204 0.219181 0.39807 
3339 1 -0.149347 0.106137 0.113155 0.215346 
2795 1 -0.0446517 0.02223 -0.00326116 0.0499858 
581 1 0.00479769 0.0861391 -0.0196364 0.0884791 
3541 2 0.125264 -0.0324509 0.0611263 0.14311 
786 1 0.210086 0.0348285 -0.185722 0.282563 
800 1 -0.0101021 -0.185164 -0.043048 0.190371 
367 1 0.0839809 0.022839 -0.123548 0.151125 
2687 1 0.0307467 -0.145522 -0.0516311 0.157441 
3545 2 -0.0153031 0.134407 -0.359543 0.384149 
491 1 -0.0868685 0.0337955 -0.0686941 0.115789 
2814 1 0.0419363 0.227687 -0.0643501 0.240293 
1723 1 -0.010884 -0.120808 -0.0251306 0.123873 
3264 1 0.0395077 -0.257915 0.0791231 0.272656 
440 1 -0.0700165 -0.0278149 0.145673 0.164002 
431 1 0.0828292 -0.0032216 0.0586196 0.101525 
3434 1 -0.0895328 -0.0381294 -0.00648273 0.0975295 
4298 2 -0.0124633 0.0389676 0.100942 0.108918 
501 1 0.139561 -0.204801 0.239999 0.344993 
968 1 0.0212539 -0.113609 0.174966 0.209694 
801 1 -0.0646533 -0.049925 0.142901 0.1646 
2656 1 -0.0517234 0.0435983 0.141697 0.157016 
421 1 0.0573448 -0.0451114 -0.0156387 0.0746192 
3378 1 0.224094 0.145599 0.293058 0.396611 
3082 1 0.0519515 0.0442617 -0.0148806 0.0698533 
2884 1 -0.1427 -0.106015 -0.0493396 0.184491 
840 1 -0.0694713 0.0235089 -0.161154 0.177058 
4152 2 -0.205413 0.221094 0.0171205 0.302276 
461 1 -0.154601 0.11984 0.095066 0.217487 
3436 1 -0.07843 0.0136515 0.0284559 0.0845421 
3371 1 0.0467127 -0.0476738 -0.259332 0.267784 
486 1 -0.206013 0.189895 -0.0143942 0.280551 
1442 1 -0.00670184 -0.0492333 0.0750095 0.0899737 
22 1 0.0142244 -0.0943191 -0.0926559 0.132979 
1254 1 0.0123435 0.00689284 0.0591462 0.0608123 
208 1 0.0604925 -0.126781 0.148683 0.204547 
3192 1 0.0202223 0.0210955 -0.134509 0.137647 
1289 1 -0.0522123 0.134767 0.103438 0.177729 
128 1 -0.0421419 0.199684 0.1628 0.261062 
907 1 -0.0300377 -0.019133 0.116185 0.12152 
1641 1 -0.109399 0.160439 0.03966 0.198196 
1544 1 -0.0288221 0.0945369 -0.0171516 0.10031 
345 1 -0.0539435 -0.0443323 0.0223713 0.0733194 
137 1 0.0703647 0.0218778 0.0538809 0.0912852 
723 1 0.0622289 -0.0590716 -0.0208362 0.0882952 
1535 1 0.0223166 -0.0296478 0.101854 0.108403 
573 1 -0.0884939 0.0978804 0.0934046 0.161667 
3844 2 -0.068052 0.0108771 -0.122648 0.140684 
631 1 0.124746 0.165403 0.0649999 0.217128 
606 1 0.00530953 0.135955 0.168848 0.216845 
1569 1 0.0166954 -0.198441 -0.0569453 0.207124 
1612 1 -0.0348176 0.093159 0.130241 0.16387 
1474 1 0.0340749 0.0350429 0.19421 0.200266 
63 1 -0.0648264 0.0609128 0.026931 0.0929414 
577 1 -0.025082 0.0315864 0.255445 0.258609 
565 1 0.111494 0.0512179 0.139777 0.185988 