ITEM: TIMESTEP
940000
ITEM: NUMBER OF ATOMS
4320
ITEM: BOX BOUNDS pp pp pp
0.0000000000000000e+00 1.9309999999999999e+01
0.0000000000000000e+00 1.9309999999999999e+01
0.0000000000000000e+00 9.6549999999999994e+00
ITEM: ATOMS id type c_displacement[1] c_displacement[2] c_displacement[3] c_displacement[4] 
381 1 -0.0621073 -0.46044 0.131564 0.482878 
3196 1 -0.166729 -0.625696 -0.451104 0.78917 
817 1 -0.0424561 -0.213655 0.01393 0.218277 
303 1 -0.145486 -0.841998 -0.471958 0.976151 
2478 1 0.103874 -0.566611 0.601776 0.83305 
677 1 -0.267427 -0.382538 0.343118 0.579295 
3877 2 0.0302339 -1.58293 -0.140273 1.58942 
716 1 -0.319944 -0.182548 -0.0298234 0.369564 
87 1 0.298577 -0.174873 -1.15956 1.21008 
3230 1 0.107948 -0.125472 0.127448 0.2089 
3651 2 0.113947 -0.262053 0.0557425 0.291141 
2939 1 -0.040552 -0.228827 1.21929 1.24124 
66 1 0.0406052 -0.181813 -0.245026 0.307802 
623 1 -0.0650055 0.139648 0.0625737 0.166261 
3608 2 0.130224 0.258196 -0.0996771 0.305874 
18 1 -0.124397 -0.382466 0.0397268 0.404145 
3189 1 -0.229567 0.306548 -0.436673 0.580823 
400 1 0.392377 -1.09004 -0.38321 1.22025 
727 1 0.0351315 -0.158151 0.00560048 0.162103 
688 1 0.310643 -0.061593 0.13371 0.34376 
58 1 0.395441 -0.147939 0.0544932 0.425711 
190 1 -0.0640984 -0.409635 -0.158724 0.443962 
3514 2 0.250332 -0.238943 0.0398028 0.348345 
158 1 -0.151903 0.284109 -0.647677 0.723379 
78 1 0.472623 0.23312 -0.401139 0.662292 
3006 1 0.634597 0.140883 0.131852 0.663285 
775 1 0.57811 -0.571953 0.229589 0.845016 
217 1 0.263153 -0.234163 -0.119433 0.371949 
608 1 -0.148717 0.0899464 -0.63954 0.662736 
28 1 0.228335 0.292056 -0.607339 0.711543 
4170 2 -0.109142 -1.04927 -0.939971 1.41295 
823 1 0.604724 -0.774982 -0.414645 1.06687 
4193 2 1.52382 -0.139815 0.860351 1.7555 
180 1 0.0863477 -1.2666 0.972568 1.59926 
171 1 0.90282 -1.24195 -0.962903 1.81237 
3478 2 1.03997 0.0060412 -0.275889 1.07596 
215 1 -0.297047 -0.157732 0.263933 0.427524 
129 1 0.846737 -0.305148 0.061931 0.902172 
121 1 1.19517 -0.139082 -0.0794103 1.20585 
562 1 0.921264 -0.159068 -0.360323 1.00193 
2453 1 -0.139801 0.240914 -0.876214 0.919421 
3024 1 0.753264 -0.474575 -0.169859 0.906355 
232 1 0.46267 0.309407 -0.0340332 0.557633 
70 1 1.2495 0.429001 0.305789 1.35602 
3627 2 1.12306 1.66767 0.454299 2.06125 
3743 2 -0.259113 0.476195 -0.815536 0.979285 
317 1 0.226251 0.38874 0.11644 0.464614 
473 1 -0.347826 -0.19477 -0.402263 0.566334 
246 1 0.712059 0.289865 -0.0728312 0.77224 
4214 2 -0.338326 0.0272653 0.0911439 0.351447 
3393 1 0.179068 -0.779521 -0.348283 0.872365 
568 1 0.606003 -0.0555969 0.14813 0.626317 
728 1 0.224313 -0.224342 0.247584 0.402422 
424 1 0.185109 0.140504 -0.23119 0.327804 
3455 1 1.63312 -0.0155993 1.20273 2.02827 
484 1 1.28805 -0.395791 1.09806 1.73823 
3135 1 0.156921 0.48459 -0.188225 0.543029 
197 1 0.235194 0.338328 -0.390998 0.568033 
4071 2 -1.57167 0.697807 0.967235 1.97297 
351 1 0.069123 -0.323456 0.291316 0.440757 
1133 1 0.401767 0.030279 0.0194176 0.403374 
4053 2 1.45677 -0.563262 0.619632 1.6803 
2945 1 0.286162 -0.490734 1.70604 1.79813 
527 1 0.135211 -0.362545 -0.00178824 0.386942 
2983 1 0.577393 -0.162542 -0.146137 0.61738 
1415 1 -0.0520027 -0.356943 0.063995 0.366344 
3002 1 0.423385 -0.0741167 -0.65441 0.782944 
894 1 0.0914358 1.26184 0.320726 1.30517 
718 1 -0.170935 1.17265 0.175013 1.1979 
4177 2 -0.117801 -0.129072 -0.213033 0.275536 
110 1 -0.279421 -0.222004 0.389998 0.52864 
93 1 0.161096 -0.220283 -0.121588 0.298764 
639 1 -0.0373991 -0.312763 0.0294053 0.316361 
3353 1 -0.285617 -0.60135 0.79478 1.03676 
569 1 -0.0992163 -0.471505 0.49631 0.691726 
50 1 0.3494 0.144739 0.272028 0.465863 
106 1 -0.362879 -0.560438 0.662191 0.940356 
2596 1 -0.42867 -9.33852e-05 -0.322403 0.536379 
3055 1 -0.00185918 0.387655 -0.407458 0.562407 
2495 1 0.380294 -0.129987 -0.195378 0.44687 
3835 2 0.445624 0.847229 0.382131 1.03073 
3152 1 0.0204679 0.0338132 -0.651172 0.652371 
3232 1 0.0278865 0.502319 -0.699457 0.861593 
2961 1 -0.733227 0.358484 0.117697 0.824613 
738 1 0.38632 0.387275 -0.684495 0.876218 
3712 2 0.605355 0.132997 0.786234 1.00115 
12 1 0.136372 0.465286 -0.510409 0.703993 
339 1 -0.486835 -0.547052 -0.345897 0.809888 
3167 1 -0.0366406 0.0679344 -0.117238 0.140365 
1271 1 -0.847697 0.512238 -0.471997 1.09716 
988 1 -0.132867 0.189907 -0.296886 0.376642 
43 1 0.190214 0.0971642 -0.256225 0.333577 
4278 2 -0.546082 0.312744 0.193553 0.65839 
210 1 0.770559 0.277626 0.448529 0.933818 
4289 2 -0.28833 0.164692 -0.638557 0.719731 
3632 2 -0.418808 -0.317481 0.0448482 0.527453 
390 1 -0.060196 0.222348 0.0953156 0.249294 
3244 1 -0.0563543 0.187106 0.269273 0.332705 
3346 1 -0.579487 0.316412 -1.09346 1.27733 
2052 1 0.546442 -0.00759314 0.536095 0.765541 
3460 2 0.158648 0.0524539 -1.15587 1.16788 
1215 1 -0.0270148 0.401176 0.297255 0.500033 
118 1 -0.0426695 -0.232307 0.244976 0.340294 
80 1 -0.293538 -0.045606 0.290312 0.415362 
100 1 -0.731597 -0.18306 -0.707048 1.03376 
3251 1 0.426011 0.117354 -0.301681 0.535041 
2960 1 -0.327594 -0.14863 -0.0437705 0.362387 
4256 2 -0.430036 1.23179 -1.21634 1.78374 
29 1 -0.145754 0.144812 0.0327534 0.208057 
553 1 -0.719019 0.955281 -0.766517 1.42025 
753 1 -0.195645 -0.0966801 0.034196 0.220892 
53 1 0.546328 0.215171 -0.281116 0.650999 
3467 2 -0.0397746 0.628813 0.14242 0.645965 
226 1 0.538682 -0.378081 -0.395348 0.767739 
96 1 0.120864 -0.355866 0.17095 0.412883 
2735 1 0.184599 0.651724 0.133438 0.690382 
437 1 0.666474 0.345027 -0.129069 0.761505 
725 1 0.426795 -0.266527 0.691321 0.855053 
3040 1 -0.0645338 0.149117 0.217202 0.271251 
298 1 0.20587 0.0232105 -0.351939 0.40839 
167 1 0.1018 0.189769 0.207991 0.299392 
550 1 0.207409 -0.315934 0.392079 0.544572 
21 1 -0.0332175 -0.799937 0.79555 1.12867 
147 1 0.6411 0.183784 -0.439394 0.798657 
3149 1 0.0242661 0.529839 0.379593 0.652234 
49 1 -0.648148 -0.0300631 -0.195425 0.677636 
323 1 -1.29586 0.438511 0.654328 1.51647 
89 1 0.347 0.46577 1.2397 1.36902 
2936 1 -0.280567 0.433699 -0.0984591 0.52584 
2591 1 0.247411 0.182778 -0.289886 0.422675 
3786 2 0.00137117 -0.446619 -1.08351 1.17195 
610 1 -0.0776263 1.62689 -0.166234 1.6372 
4169 2 -0.718713 0.177673 -0.755522 1.05779 
5 1 -0.00382194 0.390982 -0.254851 0.466723 
859 1 -0.160579 0.0262923 -0.328301 0.366413 
821 1 -1.04624 0.334051 -1.20235 1.62845 
3023 1 0.301309 0.373216 0.0160246 0.479931 
103 1 -0.508474 0.547198 -0.737544 1.04973 
23 1 0.270235 0.27077 0.00827911 0.382638 
151 1 -0.372088 -0.0760095 -0.116821 0.397333 
2461 1 0.104653 -0.181852 -0.140243 0.25237 
3730 2 -0.200623 0.0861155 -0.245022 0.328179 
330 1 -0.371923 0.61552 -0.580644 0.924304 
2056 1 1.41812 -0.546081 0.102602 1.52309 
233 1 -0.178041 1.59184 0.1241 1.60657 
594 1 0.0985039 -0.00691388 -0.782583 0.788789 
479 1 0.271264 0.529139 -0.513234 0.785482 
3118 1 0.144985 -0.794807 -0.347283 0.8794 
4228 2 0.277831 0.696659 -0.135996 0.762246 
3463 2 -0.163141 0.69115 -0.483802 0.859283 
4253 2 0.521776 0.559443 -1.20903 1.43073 
3188 1 -0.00345738 0.488077 0.261872 0.553903 
3464 2 -0.73122 -1.12139 -0.223077 1.35719 
3491 2 0.454817 -0.141249 0.262013 0.543562 
4257 2 1.78204 1.08615 0.688368 2.19755 
1487 1 -1.77983 -0.249873 -0.7353 1.94188 
675 1 -0.606258 -0.376815 -1.79203 1.92897 
691 1 0.0872954 -0.556641 0.285854 0.631809 
427 1 -0.168254 -0.123063 -0.569229 0.606198 
140 1 -0.53231 0.0174245 0.0847561 0.539297 
529 1 -0.0300452 -0.112745 -0.23409 0.261557 
1480 1 -0.103959 -0.241315 0.351823 0.439113 
4094 2 0.898926 -1.72887 -0.95754 2.17116 
609 1 -0.331676 0.641272 0.553411 0.909672 
759 1 -0.126695 -0.471951 -0.585364 0.762523 
133 1 0.318372 0.16929 -0.224849 0.424943 
40 1 0.225351 -0.357928 -0.00318414 0.422973 
1331 1 -0.353812 0.199025 0.142347 0.430182 
2494 1 0.202516 -0.823575 -0.0344491 0.848809 
354 1 0.0221611 -0.156976 0.00716739 0.158694 
98 1 0.685156 0.858606 0.54302 1.22536 
3041 1 0.0120754 0.15051 0.631537 0.649336 
604 1 -0.40866 0.349643 0.250003 0.593089 
1130 1 0.411935 1.2238 0.207151 1.30778 
85 1 -0.0151511 -0.154357 0.404965 0.43365 
3164 1 0.0775225 0.826204 -0.0993246 0.835756 
193 1 0.402795 0.0804811 0.24621 0.478895 
2996 1 -0.0421202 0.416371 -0.324455 0.529537 
4212 2 -0.239766 0.647302 -0.0214382 0.690614 
3279 1 0.237393 -0.00952902 -0.252364 0.346603 
343 1 0.457935 0.115691 -0.875355 0.994653 
2981 1 -0.543068 0.274993 -0.504585 0.790664 
338 1 -0.0240952 0.0711329 -0.506214 0.511755 
4101 2 0.046364 0.140281 -0.357219 0.386567 
3477 2 0.627846 -0.806635 -1.1353 1.52766 
3216 1 -0.109596 0.214719 -0.181177 0.301563 
237 1 -0.496831 0.390051 -0.22316 0.669912 
3841 2 -0.667313 0.26432 0.00397557 0.717766 
600 1 -0.27835 0.483103 0.107632 0.567848 
234 1 -0.0795801 -0.0625655 -0.290881 0.307992 
216 1 -0.100185 -0.274206 0.248844 0.383601 
2950 1 -0.968466 -0.610542 -0.459592 1.23366 
1149 1 -0.192792 -0.132551 0.205719 0.311542 
387 1 0.0782955 0.0394981 -0.0482677 0.1001 
379 1 -0.63681 -0.513573 0.145494 0.830935 
1457 1 0.0649595 0.0614907 -0.171644 0.193552 
640 1 0.0132407 0.193185 -0.891027 0.911825 
3037 1 -0.0224513 0.267821 -0.13844 0.30232 
3736 2 -0.0342677 -0.169717 -0.808201 0.826539 
877 1 -0.339982 0.677841 0.331306 0.827538 
2931 1 -0.283309 -0.0873526 0.664382 0.727528 
559 1 -0.310029 -0.109251 -0.193777 0.381579 
174 1 -0.568102 -0.137738 0.511999 0.777081 
2500 1 0.0927785 -0.204597 0.302491 0.376787 
3537 2 -0.554479 0.0722228 -0.264735 0.618666 
3394 1 -0.890126 -0.208013 -0.15642 0.927395 
508 1 -0.581552 0.0813932 0.550745 0.805076 
717 1 -0.679826 0.163975 0.985767 1.20863 
4204 2 -0.108253 -0.492966 0.566829 0.758966 
3411 1 -0.586522 0.328077 0.209776 0.704023 
3057 1 0.400104 0.653066 -0.512354 0.921458 
1648 1 -0.30685 -0.266492 0.766606 0.867675 
3634 2 0.395567 0.286212 2.80112 2.84335 
835 1 -0.25799 0.718658 -0.332616 0.832864 
580 1 -0.471817 -0.268538 -0.122412 0.556515 
127 1 -0.229841 0.779445 -0.402368 0.906787 
64 1 -1.23741 -0.371362 0.255245 1.31691 
721 1 0.626266 -0.138213 0.368989 0.739909 
86 1 0.614053 0.729994 -0.384192 1.02838 
241 1 -0.546836 0.173682 1.24269 1.36875 
204 1 -0.651829 -0.296842 -0.492214 0.869063 
254 1 -0.351729 0.141323 -0.522703 0.645682 
178 1 0.0299395 0.22966 -0.0171089 0.232234 
665 1 -0.384996 0.597379 0.115214 0.719971 
493 1 -0.419159 0.590046 0.32785 0.794565 
2988 1 -0.5942 -0.119734 -0.649091 0.888104 
4027 2 1.52576 -1.57301 -0.382496 2.22455 
2004 1 0.459807 0.249155 -0.954011 1.08795 
3030 1 0.518209 0.275354 0.271538 0.646601 
4050 2 0.221988 -0.595492 0.360858 0.730827 
3599 2 -0.0788083 0.520011 -0.374652 0.645745 
3369 1 -0.103507 -0.0441007 -0.162833 0.197922 
3479 2 0.442214 0.389683 -0.215593 0.627604 
1036 1 0.916177 -0.0318454 -0.173159 0.93294 
3139 1 0.226742 -0.230374 0.111661 0.341983 
3607 2 -0.233996 -0.30567 -0.174571 0.422686 
644 1 -0.0318642 -0.0119812 -0.103192 0.108662 
3408 1 0.00953536 -0.107902 0.0783955 0.133715 
4217 2 -0.163547 0.403967 0.377816 0.576786 
3528 2 -0.466155 -0.73963 -0.26509 0.913578 
3007 1 0.182487 0.175418 -1.37444 1.39755 
245 1 -0.482335 -0.103517 -0.200922 0.532666 
199 1 0.0982811 -0.33349 -0.197636 0.399919 
3644 2 -0.187686 -0.0685493 0.610558 0.642422 
214 1 0.105206 -0.230324 0.288089 0.383553 
1278 1 -0.433649 0.470583 -0.159829 0.659579 
4089 2 0.268472 0.059588 0.0109233 0.275222 
187 1 -0.566674 -0.458069 -0.279667 0.780488 
3056 1 0.034444 0.199561 -0.0879122 0.22077 
2758 1 -0.144993 0.281385 0.128868 0.341771 
3468 2 -0.700756 -0.195898 0.390199 0.825646 
181 1 -0.829567 -0.423444 0.0860916 0.935359 
1991 1 0.133276 -1.61764 0.299419 1.65051 
3130 1 -0.582177 -0.14042 0.492637 0.775461 
602 1 -0.243955 -0.186518 0.456534 0.550206 
207 1 -0.670718 0.0900726 -0.237923 0.717345 
46 1 -0.258702 -0.272115 0.595237 0.703762 
3096 1 -0.202626 0.978421 -0.578808 1.15472 
3701 2 0.0858183 -0.707108 0.412768 0.823252 
3603 2 -0.559797 -0.406045 0.123378 0.702472 
2684 1 0.0993209 -0.789793 -0.468446 0.923623 
1102 1 0.103525 0.279182 -0.0362081 0.299952 
958 1 -0.128655 0.496368 0.551881 0.75333 
532 1 -0.613133 0.12632 -0.265944 0.680158 
134 1 -0.0584862 0.0443829 -0.231015 0.242402 
240 1 -0.221475 0.474415 -0.120695 0.537297 
312 1 0.750698 0.198104 0.169086 0.794596 
3513 2 -0.111297 -0.0399583 -0.224372 0.253627 
587 1 -0.0708213 -0.172663 0.0809288 0.203415 
3576 2 -0.433578 2.30567 -1.0455 2.5685 
3003 1 -0.100193 -0.312548 -0.0418973 0.330878 
3643 2 -0.287227 -0.0327251 -0.669858 0.729575 
685 1 0.125962 -0.320045 -0.184767 0.390428 
3533 2 -1.63625 -1.13466 -2.23389 2.9925 
3620 2 -0.766164 1.40705 0.916393 1.84569 
704 1 -0.483826 0.0949027 0.611262 0.785325 
3092 1 0.0111133 -0.200716 0.0548533 0.208373 
191 1 -0.443828 0.524142 0.488678 0.84292 
1179 1 -0.620338 0.099908 0.0934999 0.63525 
95 1 -0.0973537 0.0374375 0.260421 0.280533 
2968 1 -0.401191 -0.699488 -0.188324 0.828072 
4173 2 -0.0830327 0.0154885 -0.330211 0.340843 
540 1 -0.837302 0.437255 0.0243075 0.944912 
182 1 -0.504528 -0.195113 -0.686613 0.874102 
657 1 -0.653483 0.426221 -0.656967 1.01996 
920 1 -0.216729 -0.149291 -0.431822 0.505697 
690 1 0.172721 -0.092335 -0.148089 0.245538 
4195 2 -0.44062 0.697283 0.162553 0.840698 
593 1 -0.084179 0.842807 0.864533 1.2103 
3974 2 -1.3878 -1.00933 0.605112 1.81959 
4269 2 -0.283361 -0.415462 0.73166 0.887822 
742 1 0.10312 -0.284288 -0.41635 0.514589 
6 1 -0.389063 0.395 -0.0674149 0.558515 
2926 1 0.195865 -0.136225 -0.0398532 0.241886 
710 1 0.0828804 0.0289823 -0.0160524 0.089257 
902 1 -0.08517 0.52965 -0.100134 0.545719 
446 1 -0.00128455 -0.334046 -0.238402 0.410395 
131 1 0.423013 -0.474383 -0.0916301 0.642165 
2977 1 -0.123102 0.0623829 0.411698 0.434213 
3518 2 -0.232489 0.00656585 0.102243 0.254062 
3010 1 -2.8239e-05 0.450523 -0.137045 0.470906 
733 1 -0.247863 0.426114 -0.28093 0.567389 
116 1 -0.170892 0.0965322 0.196968 0.278063 
252 1 0.41729 0.718793 0.00768474 0.831176 
551 1 -0.164967 0.00137836 -0.023947 0.166701 
3211 1 0.372543 0.0081121 -0.0272101 0.373623 
235 1 -0.270635 -0.225032 0.609919 0.70419 
3115 1 -0.43047 1.358 -0.283311 1.4525 
1077 1 0.0354817 0.391042 -0.256472 0.468989 
205 1 -0.300362 -0.205176 0.194808 0.412631 
861 1 -0.196761 -0.144964 -0.140021 0.281665 
3883 2 -1.71458 -2.09744 -1.70849 3.20281 
221 1 0.257453 0.475241 0.116002 0.552804 
694 1 -0.173516 -0.366823 0.306911 0.508784 
3341 1 -0.26545 -0.267293 0.339539 0.507145 
499 1 -0.0958232 0.637538 0.501676 0.816894 
512 1 0.104293 0.560871 0.0561161 0.573239 
2740 1 0.115435 -0.0357494 -0.621189 0.632834 
300 1 -0.767191 -0.0166187 0.198831 0.792712 
3549 2 -1.3852 0.608064 -0.449229 1.57808 
4198 2 -2.27585 -0.277782 0.409694 2.32906 
886 1 0.123637 0.33597 0.0301522 0.359265 
3531 2 0.414351 -2.28969 -0.398998 2.36084 
1145 1 -0.507407 -0.474255 -0.613781 0.92688 
3094 1 0.595839 0.282894 -0.127037 0.671708 
431 1 0.710531 -0.0823049 0.701143 1.00161 
3434 1 -0.476454 0.157987 0.248205 0.559977 
3612 2 -0.886963 -1.75604 -0.0544669 1.96808 
364 1 0.0288229 -0.415476 -0.0713886 0.422549 
478 1 0.054862 -0.666416 -0.625044 0.915314 
635 1 -0.456463 -0.18537 -0.427371 0.652201 
334 1 0.705021 0.184025 0.221352 0.761523 
3227 1 1.48678 0.619411 -0.801047 1.79885 
3482 2 -0.765469 -1.7862 0.0470554 1.94388 
3389 1 0.19098 0.269464 0.00399957 0.330303 
362 1 -0.174651 -0.132845 0.551918 0.593939 
2696 1 0.0391649 -0.144998 -0.232753 0.277006 
2848 1 0.705175 -0.307318 -0.885098 1.17265 
2710 1 1.05107 -0.620206 -0.528783 1.33005 
614 1 -0.939878 -0.476055 0.682779 1.25546 
3588 2 0.0736868 -1.51356 0.0845826 1.51771 
2776 1 0.239637 -0.00725005 -0.686684 0.727333 
3573 2 -0.49329 0.347043 -1.58139 1.6925 
265 1 0.285885 0.776217 0.191537 0.849075 
3313 1 -0.141003 -0.0817779 -0.413403 0.444377 
2365 1 -0.348771 -0.00161632 -0.54114 0.643799 
951 1 0.540758 -0.506444 -0.657709 0.990699 
306 1 -0.0126691 0.488902 -0.430698 0.65168 
228 1 -0.104202 -0.636009 -0.188891 0.671599 
4265 2 1.8997 1.13021 -1.41101 2.62244 
3333 1 -0.180825 -0.0315123 -0.570855 0.599638 
471 1 -0.167565 0.231579 -0.829027 0.876922 
903 1 0.627031 -0.461696 0.287702 0.830123 
3679 2 0.01756 -1.75027 1.00455 2.01813 
327 1 0.530556 -0.698879 0.0343297 0.878123 
626 1 -0.123741 -0.531507 0.302994 0.624192 
308 1 -1.54761 -0.403212 0.0845279 1.60151 
771 1 -0.182206 -0.0256169 -0.228933 0.293709 
3257 1 -0.225206 0.378343 -1.17682 1.25649 
287 1 -0.120376 -0.971717 0.220111 1.00358 
206 1 0.166714 -0.682978 -1.46302 1.62317 
462 1 0.661103 -0.121584 0.362764 0.763831 
2966 1 0.387198 0.343066 -0.615226 0.803816 
750 1 -0.440103 1.16472 0.536591 1.3558 
231 1 -0.181493 1.09964 0.677585 1.30433 
449 1 0.353651 0.311385 -0.166111 0.499623 
1285 1 0.252163 0.577424 0.0773783 0.634817 
2890 1 0.135695 0.429001 0.116614 0.464816 
3409 1 0.227119 -0.757048 -0.351933 0.865195 
4318 2 -0.495666 -0.0857415 -0.139577 0.522032 
3022 1 0.983671 0.932385 0.0935193 1.35856 
3209 1 0.51039 0.296313 0.0515502 0.592416 
3197 1 0.15235 0.285663 0.404443 0.518062 
974 1 -1.07832 -0.839617 0.940759 1.65915 
356 1 -0.369764 -0.015411 0.280281 0.464241 
2732 1 0.434862 -0.0319705 -0.0842815 0.444107 
4056 2 -1.67245 -1.70455 -1.45387 2.79577 
373 1 0.750157 0.343697 -0.38126 0.908968 
1212 1 -0.258881 -0.42572 -0.41553 0.648785 
4146 2 -2.33909 0.229799 -0.463382 2.3956 
836 1 0.0396008 -0.319899 -0.365663 0.487456 
4297 2 0.519485 1.21568 -0.448479 1.39603 
3404 1 0.856039 0.310471 0.111672 0.917423 
398 1 -0.284178 0.179697 0.13179 0.361133 
412 1 -0.46293 0.295617 0.15646 0.571116 
394 1 -0.253071 -0.246472 -0.116104 0.371852 
3785 2 -1.34505 -0.90709 0.341074 1.6578 
457 1 -0.843519 0.156183 -0.132304 0.867998 
155 1 -0.235828 0.193506 -0.0058465 0.305112 
2959 1 1.21751 -0.142422 1.11503 1.65708 
3319 1 -0.0764799 0.198877 0.487881 0.532381 
3360 1 -0.0938321 0.250817 0.383096 0.467415 
3093 1 -1.1298 0.0547493 -0.852053 1.41613 
3324 1 0.117164 -0.373333 0.0961197 0.402919 
2745 1 -0.094044 -0.28084 -0.278495 0.40654 
3095 1 0.184071 0.0374096 -1.35439 1.36735 
3180 1 -0.396835 -0.557474 -0.439894 0.813487 
318 1 -1.13381 1.17803 -1.46078 2.19252 
2687 1 -0.155893 -0.550106 0.384596 0.689082 
389 1 0.330709 0.518579 -0.134017 0.629486 
3379 1 0.674068 -0.371564 0.630057 0.994686 
3337 1 0.513812 -0.862326 0.244336 1.03311 
4225 2 0.239115 0.449828 -0.098241 0.518818 
3150 1 1.24432 1.49847 -1.64629 2.5503 
3483 2 0.592007 -0.813042 0.543295 1.1431 
915 1 -0.97174 0.39673 0.187703 1.06626 
536 1 0.0216576 -0.282301 0.506186 0.579989 
601 1 0.000910028 0.604044 -0.207725 0.638764 
1313 1 1.08961 -0.648511 -0.274408 1.29735 
353 1 0.279881 0.343651 -0.0774116 0.449913 
3617 2 0.245257 0.362459 -0.226917 0.49297 
71 1 0.313969 0.445339 -0.205994 0.582527 
962 1 -0.578896 0.540348 -0.503465 0.938389 
1304 1 0.196347 -0.0405547 -0.039504 0.204346 
3392 1 -0.839678 0.33725 0.119491 0.912729 
423 1 0.18289 0.108902 -0.295578 0.364245 
2838 1 0.282632 -0.457491 0.336498 0.634357 
4185 2 0.108266 0.152118 0.135077 0.23045 
3422 1 0.514101 0.795643 -0.910893 1.31418 
943 1 -0.0855314 -0.145336 0.367267 0.404133 
489 1 0.875234 -0.259556 -0.386512 0.99136 
3676 2 0.213068 0.756959 0.217416 0.815877 
3668 2 -1.40416 0.117243 0.278199 1.43625 
460 1 0.586034 0.249902 -0.32966 0.71733 
1314 1 0.780169 -0.258852 0.076221 0.825517 
3199 1 0.296053 0.322208 -0.304197 0.532918 
838 1 0.00955791 0.696675 -0.0996181 0.703827 
388 1 -0.224526 0.671044 -0.0425739 0.708889 
4309 2 -0.138817 -0.617548 -0.232377 0.674266 
291 1 0.698637 0.179825 0.290782 0.777808 
375 1 -0.455805 -0.358063 -0.0356376 0.580721 
4109 2 -0.690482 -0.244045 0.150742 0.747694 
439 1 0.489639 1.05158 -0.466082 1.25012 
421 1 -0.955835 1.17058 0.403729 1.56425 
3249 1 -0.288007 -0.0932391 -0.690237 0.753703 
3301 1 -0.60914 0.185854 0.273542 0.693122 
436 1 -0.0826099 -0.0731959 0.0161203 0.111543 
392 1 -0.330541 0.217422 0.230394 0.457833 
37 1 -1.24991 0.257086 -0.370088 1.32866 
3293 1 -0.405585 0.222076 0.433523 0.633844 
901 1 -0.152561 -0.380766 0.0213147 0.410745 
792 1 -0.373823 -0.0813116 0.500302 0.629807 
1373 1 -1.25617 -1.01362 -0.763986 1.78579 
2479 1 -0.143057 -1.06702 -0.709057 1.2891 
490 1 0.178414 -0.466611 -0.385395 0.630941 
2771 1 0.614499 -1.03562 0.844621 1.47089 
382 1 0.3999 0.541489 -1.3902 1.5446 
3314 1 -1.3312 -0.040188 -0.243157 1.35382 
3266 1 0.381876 0.579267 -0.713801 0.995436 
4284 2 -0.246473 -0.188936 0.988043 1.0357 
3368 1 0.604085 -0.879608 -0.53553 1.19391 
3916 2 -1.96638 -2.41496 -0.596411 3.17087 
94 1 -0.367925 0.536939 -0.717131 0.968478 
2329 1 0.0252494 -0.169471 -0.309733 0.353967 
309 1 0.448145 -0.417168 0.135333 0.627039 
924 1 -0.0887112 -0.0256524 -0.3046 0.31829 
2944 1 -0.522293 -0.276675 0.570712 0.821615 
3561 2 -0.327753 0.477984 -0.933324 1.09863 
1172 1 0.227533 -0.0316097 0.189208 0.297607 
3568 2 0.196115 0.156423 -0.192956 0.316483 
4271 2 0.188921 -0.033514 0.372578 0.419081 
652 1 0.459927 0.155612 0.327126 0.585456 
3611 2 0.245979 1.94707 0.807745 2.12227 
3433 1 -0.0234389 0.143747 0.0328168 0.149296 
647 1 0.274023 0.160152 -0.45976 0.558674 
325 1 0.260149 -0.19987 0.130392 0.353026 
908 1 0.0816022 -0.291006 0.466395 0.555759 
292 1 0.235817 -0.391733 0.426753 0.625446 
3504 2 0.822387 -0.25104 0.767889 1.15282 
3444 1 -0.152694 -0.326636 -0.398442 0.537366 
2869 1 -0.0146803 -0.825071 -0.152154 0.839112 
502 1 0.178988 0.00624584 0.0736917 0.193665 
3331 1 0.304212 -0.141456 -0.42822 0.543992 
4307 2 0.698626 -1.10748 -1.24438 1.80639 
177 1 -0.389293 -0.09652 -0.647666 0.761798 
430 1 0.173578 -0.087819 -0.0817921 0.211024 
980 1 0.255493 -0.549375 -0.0731453 0.610278 
225 1 0.20415 -0.257984 0.385266 0.506619 
874 1 0.365415 -0.315827 -0.670096 0.826017 
810 1 -0.100937 -0.0551829 -0.0903183 0.146256 
4182 2 -0.407452 0.990565 -0.575283 1.21581 
3312 1 0.00606614 0.0575417 -0.239026 0.24593 
416 1 0.210829 -0.420355 0.253887 0.53442 
2819 1 -0.0410041 -0.569441 -0.432733 0.716382 
2973 1 1.02863 -0.825696 -0.188955 1.3325 
3070 1 1.10881 -1.15545 -0.507787 1.67999 
4152 2 -1.13016 -0.468425 -3.10829 3.34038 
819 1 -0.0698984 -0.63317 -0.0285025 0.637654 
964 1 -0.53829 -0.894644 -1.64051 1.94458 
474 1 0.10812 -0.219945 -1.15883 1.18447 
3524 2 -1.70503 -1.24448 0.991303 2.33206 
3291 1 -0.284378 -0.00604144 -0.413499 0.501885 
3013 1 1.30544 -0.468005 0.164142 1.39647 
957 1 0.776242 -0.395375 -0.765662 1.15979 
1367 1 -0.428339 0.239311 -0.519031 0.714239 
1337 1 0.211389 -0.743197 -0.0415887 0.773794 
402 1 0.266309 0.281219 -0.317777 0.500986 
2993 1 -0.264571 -0.192246 -0.15663 0.362614 
160 1 0.136891 -0.0398885 0.593714 0.610595 
279 1 0.435248 0.20101 -0.24829 0.539901 
825 1 -0.548828 -0.592234 -0.00195669 0.807439 
783 1 -0.646095 0.357659 0.636545 0.97496 
4285 2 -0.926833 -0.0718661 -0.827379 1.24448 
517 1 0.161606 0.0810328 -0.122088 0.218148 
4280 2 1.15674 -0.954325 0.242513 1.51907 
3223 1 -0.409691 -0.334779 0.0816437 0.53534 
3419 1 0.270172 -0.221475 0.559586 0.659682 
917 1 -0.000368348 -0.435936 0.226075 0.49107 
4028 2 -0.270881 0.437182 0.383376 0.641469 
274 1 -0.398436 -0.0814056 0.328823 0.522975 
1091 1 -0.283899 -0.155122 0.124812 0.346755 
3396 1 -0.278554 -0.0326458 0.323951 0.428488 
3863 2 -0.372516 -0.181916 0.422613 0.591999 
3674 2 -0.0892992 -2.16785 1.1203 2.44185 
3322 1 -0.0962031 0.114083 -0.089968 0.174253 
3420 1 0.602999 -0.212103 -0.513966 0.820218 
3327 1 0.305543 -0.13872 0.520367 0.619178 
3435 1 0.104969 -0.00425364 0.468157 0.479799 
855 1 0.387703 0.09554 -0.062191 0.404115 
443 1 0.10685 -0.106621 0.402125 0.429523 
1418 1 0.463001 0.0707859 0.461655 0.657652 
113 1 -0.256446 0.246437 0.6215 0.716071 
1450 1 -0.353808 -0.445219 -0.630571 0.849129 
3559 2 -0.276931 -0.65392 -0.552293 0.899628 
4237 2 0.244761 0.0605744 -0.617463 0.666962 
440 1 -0.081683 -0.374037 -0.632093 0.738998 
830 1 0.0131514 -0.334068 0.138564 0.361904 
347 1 0.354914 -0.0554789 -0.361213 0.509428 
875 1 -0.10282 -0.379418 0.0162934 0.39344 
363 1 -0.294105 -0.257855 -0.481315 0.620203 
4163 2 -0.67832 -0.600573 0.405483 0.992584 
3535 2 0.453998 -0.178389 0.229076 0.538899 
295 1 -0.435417 -0.430361 -0.220936 0.650854 
442 1 -0.272972 -0.180603 -0.484698 0.584861 
937 1 -0.0943418 0.0270484 -0.197089 0.220173 
501 1 0.00422641 -0.198932 -0.208785 0.288415 
1289 1 -0.495041 1.1836 -1.03399 1.64776 
3397 1 -0.208451 -0.815609 -0.238206 0.874878 
433 1 0.045104 -0.168269 -0.264004 0.316303 
314 1 0.000531274 -0.0567437 0.0184326 0.0596648 
486 1 0.421591 -0.048357 -1.72837 1.7797 
183 1 -0.757198 0.178905 -0.0608818 0.780425 
3799 2 -0.370926 1.33313 0.75093 1.5744 
757 1 -0.231681 -0.26258 -0.0848991 0.360323 
321 1 -0.794505 -0.745688 -0.157891 1.10101 
3371 1 -0.288675 -0.538481 -0.83812 1.03718 
1354 1 0.547949 -0.367552 0.441731 0.794021 
419 1 0.77752 -0.0195712 -0.387637 0.869012 
781 1 -0.048757 0.281943 -0.852356 0.8991 
3200 1 -0.319759 0.356138 -0.39213 0.618746 
1430 1 -0.39823 -0.409759 -0.217821 0.611503 
822 1 -0.348496 -0.367046 -0.171579 0.534426 
3961 2 0.985561 -2.46637 -0.652226 2.73491 
3278 1 -0.0832245 -0.143 -0.0665902 0.178352 
367 1 0.5301 0.0697871 -0.241009 0.586482 
248 1 0.108924 0.0586675 -0.0170811 0.124893 
3383 1 -0.185945 0.116537 0.509148 0.554426 
699 1 -0.0431968 0.405486 -0.278969 0.494074 
504 1 -0.259555 -0.249793 0.288246 0.461358 
329 1 -0.290732 0.0424999 0.419477 0.512145 
3240 1 -0.344459 -0.391615 0.0713896 0.526413 
866 1 -0.495556 0.485329 0.312034 0.760582 
3678 2 -0.89337 0.0509716 -0.524022 1.03697 
3303 1 0.158845 0.00174887 -0.304426 0.34338 
1409 1 0.169929 0.300115 -0.751219 0.826605 
800 1 -0.134632 0.158257 -0.389996 0.441892 
393 1 -0.0260707 -0.262796 -0.614818 0.669136 
581 1 0.0977744 -0.207998 0.372654 0.437828 
2795 1 -0.115966 0.163021 0.408924 0.455239 
3541 2 -0.716216 0.465992 -0.055881 0.856292 
786 1 -0.306225 -0.252913 0.373296 0.545059 
772 1 -0.489768 -0.023599 -0.514285 0.710576 
3545 2 0.255949 0.427026 -1.13744 1.24162 
107 1 -0.0185534 0.212281 0.595302 0.632291 
793 1 0.835123 -0.431352 -0.638464 1.13628 
319 1 0.00344153 -0.170447 0.140832 0.221128 
3219 1 0.575583 -0.677812 -0.727344 1.14881 
1723 1 -0.74771 -0.226967 0.487873 0.921198 
2814 1 -0.502959 0.109369 -0.543016 0.748195 
4154 2 -1.51725 0.394132 -0.741217 1.73401 
31 1 -0.905452 0.139576 0.454193 1.02255 
328 1 0.139 -0.374847 0.311334 0.506715 
968 1 -0.104145 -0.240303 -0.138472 0.296254 
406 1 -0.874765 0.0888163 -0.780032 1.17539 
268 1 -0.7466 -0.864054 1.16576 1.63187 
801 1 0.106296 -0.0461483 -0.0891392 0.146199 
2656 1 0.0354644 0.0760189 0.833879 0.838088 
461 1 -0.125411 -0.221571 -0.0894751 0.269866 
4143 2 0.851464 -1.84987 0.0880862 2.03833 
3436 1 -0.392002 -0.438266 -0.425249 0.725658 
2884 1 0.333493 -0.537371 -0.349033 0.722363 
3339 1 -0.0990601 0.475017 -0.737053 0.882441 
840 1 -0.0667087 -0.167547 -0.434507 0.470445 
3192 1 0.456875 0.00766271 -0.543975 0.710424 
92 1 -0.375282 -0.65178 -0.892874 1.16742 
2873 1 0.312723 -0.647147 0.202639 0.746765 
899 1 -0.333446 0.291692 0.151256 0.468133 
3378 1 0.0458406 -0.15271 0.0928453 0.184504 
4098 2 0.274798 -1.26181 0.619648 1.43236 
3009 1 0.442792 0.402829 -0.0892235 0.605225 
3944 2 0.282724 0.420949 0.365016 0.624794 
907 1 -0.372757 -0.184558 -0.324407 0.527493 
606 1 0.344415 -0.77105 -0.320162 0.903129 
128 1 -0.283513 -0.357805 0.706786 0.841398 
891 1 -0.48026 0.2023 -0.141896 0.540102 
1641 1 -0.223406 0.391424 0.000881415 0.450693 
1535 1 0.000431391 -0.137598 0.25571 0.290381 
3699 2 0.590085 -0.373696 -1.41101 1.57442 
289 1 0.304659 0.321604 0.111071 0.456709 
3586 2 0.498937 0.540005 0.00252506 0.735221 
1544 1 -0.332546 0.344589 -0.0107436 0.479003 
3776 2 0.0901366 0.937836 -0.237218 0.971563 
1612 1 -0.0537728 0.527402 0.196555 0.565401 
631 1 -0.223497 0.473509 0.155835 0.546302 
683 1 0.151503 0.0783911 0.695925 0.716526 
3704 2 -1.47913 -0.931458 0.477672 1.81207 
3600 2 -0.641119 0.108809 -0.00788571 0.650335 
858 1 0.110476 0.245137 0.291421 0.396513 
1160 1 -0.210163 -0.292471 -0.950613 1.01655 
573 1 0.0325897 0.685516 0.0278304 0.686855 
3844 2 0.0634907 0.812462 0.0230112 0.815263 
565 1 -0.542586 0.00836995 -0.0140748 0.542833 
577 1 0.133604 0.189438 0.24436 0.336821 
4319 2 0.00458753 -0.783285 0.15415 0.798322 
3173 1 -0.265983 0.268175 0.316674 0.492897 
3616 2 -0.510144 0.427193 0.623335 0.911749 
3884 2 0.264104 -0.297571 1.15653 1.22305 
2057 1 -0.0930432 0.101015 0.247741 0.283261 
1053 1 0.115401 -0.872972 -0.311401 0.934006 
621 1 -0.0356954 -0.0372976 -0.186241 0.193264 
1083 1 0.754805 -0.620816 -0.343345 1.03587 
65 1 0.795905 -1.2752 -0.262824 1.526 
555 1 -0.0127035 0.402206 -0.107367 0.416484 
655 1 -0.3809 0.048917 -0.391759 0.548592 
425 1 0.665867 0.202385 1.06848 1.27514 
3497 2 1.63433 -0.160146 0.928459 1.88646 
1118 1 0.789232 -0.629496 0.651586 1.20155 
617 1 0.0942127 0.239743 -0.719027 0.763775 
401 1 -0.216768 0.0787384 0.573398 0.61804 
740 1 0.0845836 0.207723 0.327356 0.396819 
3572 2 0.0475713 0.196774 0.44122 0.485446 
266 1 1.03215 0.0720369 0.0303448 1.03511 
166 1 -0.983642 -0.000669149 0.315446 1.03299 
1093 1 0.55199 1.01287 0.439739 1.23449 
1217 1 -0.0842836 0.299016 0.112581 0.330438 
3063 1 0.0441848 0.300517 -0.259373 0.399421 
739 1 -0.18738 0.246646 0.0648741 0.316472 
516 1 -0.335248 0.087896 0.518133 0.623361 
1269 1 0.0236366 -0.259392 0.0898738 0.275536 
52 1 0.779287 -0.0467469 0.435954 0.894164 
959 1 -0.390936 0.088523 0.0790364 0.408551 
1306 1 -0.66117 0.0406026 0.0573368 0.664892 
591 1 -0.354701 0.366288 1.04769 1.16517 
3589 2 0.572105 -0.0200915 0.154021 0.592815 
1934 1 0.456594 -0.365393 0.248231 0.635302 
708 1 0.0997748 -1.04338 -0.100097 1.05291 
1412 1 0.540072 0.324587 0.158348 0.649699 
3957 2 -0.789504 -0.865563 -0.335873 1.21874 
3778 2 0.128028 -0.454929 1.78285 1.84443 
624 1 -0.0314106 0.0559046 0.180196 0.191266 
2768 1 0.671087 -0.152179 -0.140491 0.70232 
3459 2 0.394574 0.208839 0.71291 0.841156 
896 1 0.104634 0.568701 -0.561221 0.805815 