ITEM: TIMESTEP
74000
ITEM: NUMBER OF ATOMS
4320
ITEM: BOX BOUNDS pp pp pp
0.0000000000000000e+00 1.9309999999999999e+01
0.0000000000000000e+00 1.9309999999999999e+01
0.0000000000000000e+00 9.6549999999999994e+00
ITEM: ATOMS id type c_displacement[1] c_displacement[2] c_displacement[3] c_displacement[4] 
381 1 -0.0610054 -0.0369751 0.156694 0.172168 
303 1 0.202454 -0.327687 -0.486286 0.620355 
2478 1 0.644963 -0.281318 0.348912 0.785403 
327 1 0.047066 -0.0161929 0.113022 0.123497 
728 1 0.0616065 -0.102258 -0.00905626 0.119725 
2945 1 0.0901349 0.184776 0.0456612 0.210598 
3230 1 0.173873 -0.0722386 0.0122955 0.188684 
3651 2 0.604627 -0.232159 -0.358439 0.740236 
400 1 -0.0720503 0.117427 -0.00298969 0.137802 
677 1 -0.221454 -0.100556 0.228727 0.33387 
4053 2 0.157134 0.00402285 -0.294897 0.334173 
2768 1 0.169548 -0.0553803 -0.132119 0.221966 
727 1 -0.345067 -0.214645 0.325023 0.520369 
1178 1 0.0663172 0.219543 0.0667989 0.238871 
87 1 0.242106 0.522026 -0.0865022 0.581901 
3514 2 0.426703 -0.224463 0.492119 0.688941 
688 1 0.364498 -0.175389 0.132797 0.425741 
58 1 0.171786 -0.0689981 -0.273072 0.329908 
18 1 0.390744 0.423195 0.000956953 0.576 
110 1 0.0998299 -0.103389 -0.166381 0.219859 
3199 1 0.204405 0.113737 -0.0944055 0.25225 
7 1 0.0787434 -0.411264 0.208648 0.467838 
215 1 -0.0355636 -0.0102825 0.0746661 0.0833398 
190 1 -0.173177 0.176994 -0.132249 0.280726 
106 1 -0.271041 -0.134856 0.0870169 0.314994 
217 1 -0.0222822 -0.0716517 0.0151848 0.0765574 
775 1 0.0725918 -0.0294077 -0.080448 0.112278 
180 1 0.0979954 0.0708973 -0.0184707 0.122355 
3627 2 -0.0718307 -0.0221501 -0.0229533 0.0785947 
594 1 0.085851 0.0614861 -0.00422405 0.105682 
608 1 -0.0136269 0.0454911 -0.13285 0.141082 
1133 1 0.075919 -0.117082 -0.0237656 0.141551 
3118 1 0.00772897 0.0729962 -0.223271 0.235028 
562 1 -0.00357014 -0.0335452 0.0108778 0.0354451 
70 1 0.0564681 0.0144294 0.0215986 0.0621559 
1118 1 -0.0581275 -0.109513 0.0312653 0.127865 
121 1 -0.0353739 -0.00153394 -0.244482 0.247032 
226 1 0.195383 -0.109791 0.0773238 0.237081 
210 1 0.102872 -0.109155 0.160725 0.219841 
821 1 -0.601313 0.137043 -0.294933 0.683625 
4214 2 0.188483 -0.0187899 0.19133 0.269232 
532 1 -0.172038 0.103008 0.0664744 0.211249 
3578 2 0.114752 0.0074777 0.124391 0.169402 
473 1 -0.0865587 -0.223138 0.012643 0.239673 
246 1 -0.0544807 0.0408763 0.0331603 0.0757537 
3346 1 0.00902052 0.165445 -0.0589004 0.175849 
817 1 0.231217 -0.111053 0.214517 0.334382 
484 1 0.0992186 0.295763 0.486389 0.577836 
4071 2 -0.00352371 0.174851 0.309486 0.355481 
2838 1 0.074076 0.0824377 0.0347253 0.116142 
894 1 -0.0473594 0.0847075 -0.00390788 0.0971264 
351 1 -0.00069426 -0.00344677 -0.104009 0.104068 
3135 1 -0.0719526 0.370931 -0.34587 0.512243 
289 1 -0.0550946 -0.242433 0.0185832 0.249308 
536 1 0.0598962 0.106773 0.0633937 0.137865 
2936 1 0.154151 0.0969041 -0.0376546 0.185933 
4187 2 -0.0536437 -0.0508828 -0.494667 0.500162 
197 1 -0.107151 0.811586 0.126303 0.828314 
3469 2 -0.037741 -0.0331287 0.0214381 0.054603 
1415 1 -0.186059 -0.431135 0.210677 0.514665 
527 1 -0.0591597 -0.181721 -0.0637199 0.201452 
3002 1 -0.139078 0.190418 -0.186213 0.300461 
712 1 0.0614941 -0.191674 -0.102786 0.226021 
3478 2 -0.0278763 0.111735 0.151636 0.190408 
623 1 -0.180034 0.0238473 0.0190232 0.1826 
4177 2 0.533401 -0.419934 0.340243 0.759359 
93 1 0.0531937 0.255964 -0.0604374 0.268327 
569 1 0.126954 0.227068 0.256059 0.365026 
639 1 -0.129866 0.1817 0.0391451 0.226743 
21 1 -0.125577 0.0215565 0.0435673 0.134656 
3353 1 0.0665578 -0.208588 0.0345694 0.221662 
823 1 -0.0081123 0.0354265 -0.0964977 0.103115 
28 1 -0.204361 0.207822 0.0189057 0.29208 
2596 1 -0.0775742 0.0562107 0.0832619 0.126925 
50 1 -0.108232 -0.150507 -0.10789 0.214492 
2495 1 0.103983 0.150024 0.0331487 0.185522 
3055 1 -0.0139962 -0.0318118 -0.227003 0.229648 
12 1 0.152902 0.268815 -0.0832597 0.32027 
738 1 0.0922932 -0.198274 -0.0518417 0.224762 
232 1 -0.104461 0.0690214 0.0290554 0.128531 
65 1 -0.0393682 -0.0476395 0.0372179 0.0721426 
4170 2 -0.17306 0.0269048 0.00247997 0.175157 
2453 1 0.212692 0.0484958 0.0705925 0.229288 
3167 1 0.0511705 0.187997 0.0460806 0.200212 
339 1 0.125061 0.337746 0.0297986 0.361387 
988 1 -0.0111173 0.175582 -0.23817 0.296104 
390 1 0.350396 -0.000854019 0.13362 0.375009 
118 1 0.232462 0.0938156 -0.046332 0.254924 
3582 2 0.14575 0.371362 -0.0711117 0.405228 
3632 2 0.153603 0.218574 -0.0339018 0.269291 
231 1 0.0962452 0.0436631 0.103788 0.148127 
323 1 0.121568 0.113806 -0.0621141 0.177732 
3244 1 0.131906 0.210517 -0.106943 0.270469 
203 1 0.0930786 -0.129697 0.0469428 0.166399 
3189 1 -0.29339 0.391437 -0.35283 0.60315 
424 1 -0.0346576 0.0675716 0.0126792 0.0769925 
4034 2 0.125999 0.250695 0.333012 0.435455 
3251 1 -0.192205 -0.00408076 -0.349184 0.398609 
553 1 -0.482596 0.582727 -0.376084 0.844931 
2960 1 -0.22584 -0.179218 -0.0498326 0.292586 
29 1 -0.124827 0.202529 -0.00119674 0.23791 
753 1 -0.119445 -0.168828 -0.161068 0.262131 
2735 1 -0.0424977 0.151562 -0.0845946 0.178699 
3460 2 0.112033 0.318627 0.29596 0.449073 
4228 2 0.0899576 0.0861751 -0.422049 0.44005 
718 1 0.0867191 0.114331 0.247461 0.286057 
3467 2 -0.576803 0.66657 0.0537624 0.883124 
53 1 0.329395 0.12764 -0.397289 0.531631 
437 1 0.217421 -0.00365111 -0.265362 0.343078 
593 1 -0.183095 0.115696 0.227129 0.313842 
609 1 0.241973 -0.0340587 -0.271289 0.365115 
3040 1 -0.193313 0.013317 -0.285476 0.345028 
725 1 -0.00878113 0.0908326 0.0359351 0.0980765 
96 1 -0.0419253 -0.121842 -0.205882 0.24288 
1454 1 -0.236883 0.0778354 -0.153715 0.292916 
167 1 0.0479827 0.0344283 0.16052 0.171039 
610 1 0.0346556 -0.0463721 0.0327071 0.0664916 
89 1 -0.0458727 0.0194262 -0.04528 0.0673198 
3149 1 -0.0450223 0.0411859 0.174397 0.184764 
550 1 0.00667832 -0.327204 0.362625 0.488471 
147 1 0.00104679 -0.035548 -0.0127553 0.0377817 
3611 2 -0.157144 0.210057 0.0339847 0.264524 
3618 2 0.210561 -0.0812776 -0.198254 0.300411 
3916 2 -0.413036 -0.39845 0.0984384 0.582281 
3554 2 0.0866387 -0.342521 -0.0527045 0.357218 
3152 1 0.109099 -0.0217621 0.0361021 0.11696 
3786 2 0.0649995 -0.0207359 -0.0207382 0.071309 
5 1 0.0997222 0.121477 0.025423 0.159209 
2591 1 0.0898045 0.0995975 -0.120526 0.180308 
3232 1 -0.0388586 0.26865 0.12156 0.297422 
1215 1 0.0546613 -0.272466 -0.112068 0.299641 
859 1 0.187585 0.045746 0.00574703 0.193168 
23 1 0.0383566 0.108338 -0.364083 0.381791 
43 1 0.175893 0.0599608 0.036779 0.189436 
3023 1 -0.0871783 0.486967 -0.285833 0.571347 
151 1 0.0229299 -0.00197161 0.0633535 0.0674043 
3730 2 -0.0570903 -0.143201 -0.247962 0.291978 
3743 2 -0.0507409 0.122354 0.0245917 0.134721 
4257 2 1.14701 0.803259 -0.200952 1.41466 
3006 1 0.0945476 0.0163757 0.200218 0.222024 
4289 2 -0.168741 0.204638 0.038444 0.268008 
920 1 0.0103457 -0.0710006 0.17712 0.191101 
2461 1 -0.138318 0.179007 0.0120805 0.226542 
2939 1 -0.193784 0.0817429 0.210823 0.297793 
3679 2 -1.0678 -0.0830562 0.0800076 1.07401 
155 1 -0.223555 0.080044 -0.0258192 0.238852 
171 1 0.435171 -0.935584 -0.504549 1.14859 
453 1 -0.147365 0.193475 -0.316197 0.39891 
3712 2 -0.0651396 0.066232 -0.123355 0.154423 
103 1 -0.11718 0.101158 -0.160164 0.222748 
3188 1 0.0221517 0.358546 0.0183723 0.359699 
529 1 -0.309156 -0.191512 -0.053774 0.367622 
691 1 -0.0573111 -0.44375 0.0676295 0.452518 
3096 1 -0.273142 -0.116437 0.114828 0.318355 
140 1 -0.314044 -0.344071 0.0260516 0.466569 
3464 2 -1.05665 -1.41483 -0.250577 1.78355 
216 1 0.136707 -0.166175 0.0392367 0.218729 
2931 1 -0.160799 -0.0275107 0.113374 0.198662 
2500 1 0.127089 -0.31648 0.2207 0.406226 
2981 1 -0.0627646 -0.0597304 -0.0217363 0.0893285 
1480 1 -0.255184 -0.300718 0.185907 0.436018 
2968 1 0.202515 -0.0446877 0.0678359 0.218199 
98 1 0.357745 -0.184787 -0.0124486 0.402844 
133 1 0.0157946 0.0352235 -0.204435 0.208048 
1331 1 -0.223194 0.058187 0.0609066 0.23856 
3491 2 -0.433005 0.462979 -0.506988 0.811714 
40 1 0.0335952 0.0497437 0.0493607 0.0777146 
825 1 -0.0490922 -0.0713874 0.284478 0.297378 
3211 1 0.251552 -0.0566501 0.146459 0.296543 
1130 1 -0.0852242 0.166804 -0.0344114 0.190449 
3041 1 -0.066986 -0.259559 -0.17803 0.321796 
604 1 0.223355 0.276097 -0.211017 0.413092 
721 1 0.175055 0.0290388 -0.190388 0.26026 
4094 2 0.60786 -0.427597 -0.640596 0.981171 
3164 1 0.126855 0.0924087 0.0178289 0.157954 
64 1 0.0194733 -0.111569 -0.152273 0.189773 
257 1 -0.00698194 0.00938243 -0.000879291 0.0117282 
193 1 0.10565 0.125584 0.0027755 0.164137 
2996 1 0.0999912 0.0193783 -0.144169 0.176517 
4212 2 -0.139489 0.124724 -0.0140765 0.187647 
44 1 0.0883507 0.051865 -0.095961 0.140372 
3279 1 -0.0894621 -0.0430353 -0.0963151 0.138319 
178 1 0.00778981 0.0235951 -0.0885039 0.0919258 
1149 1 -0.0573891 -0.119342 0.261346 0.292981 
330 1 -0.0463171 0.278982 0.126939 0.309983 
600 1 -0.196842 0.0672427 -0.0854503 0.224878 
338 1 -0.10006 -0.17316 -0.0652544 0.210368 
4101 2 0.0203766 0.0372428 0.163924 0.169332 
4217 2 -0.185316 -0.0166981 0.0885868 0.206079 
3608 2 0.0114642 0.101028 -0.00823971 0.10201 
3841 2 -0.0446192 -0.086705 -0.0215814 0.0998719 
233 1 0.0579875 0.146019 0.240428 0.28721 
446 1 0.0225118 0.00562291 0.148319 0.150123 
3216 1 -0.0561216 0.0843644 -0.102121 0.14386 
3408 1 -0.131595 -0.147714 0.0910404 0.217773 
479 1 -0.204969 0.1158 0.153629 0.281112 
3335 1 -0.140331 0.00853535 -0.0110177 0.141022 
1457 1 -0.107773 -0.0717833 0.00400892 0.129553 
3037 1 -0.0350351 0.198951 -0.173515 0.266302 
4253 2 -0.0377498 0.0912517 -0.129297 0.162695 
387 1 -0.0187248 -0.00991642 -0.0136929 0.0252279 
3736 2 -0.172833 0.305073 0.12336 0.371696 
154 1 0.103844 -0.081708 0.0622081 0.146047 
174 1 0.15717 -0.0719352 0.230082 0.287775 
717 1 -0.036133 -0.175835 0.265023 0.320095 
497 1 0.0217988 -0.0876142 0.115918 0.14693 
508 1 0.13757 -0.0220899 0.338837 0.366366 
3130 1 0.251024 0.0701831 0.00424979 0.260685 
3537 2 0.295254 0.115422 -0.109901 0.335522 
747 1 0.0215002 0.050181 0.202105 0.209349 
958 1 0.191982 -0.207448 0.135364 0.313393 
182 1 0.00723212 0.11657 0.0300999 0.12061 
4204 2 -0.0641841 -0.227298 -0.0522428 0.241896 
86 1 0.364522 -0.0200391 -0.0584228 0.369717 
759 1 0.0484684 -0.0922383 -0.196704 0.222597 
3411 1 -0.0381406 0.152337 0.15503 0.220671 
835 1 -0.326149 0.27558 -0.152126 0.453277 
3057 1 0.548477 0.0987556 -0.0245503 0.557838 
3620 2 -0.183447 0.543668 0.146929 0.592297 
241 1 0.117346 0.0564602 -0.0262676 0.132845 
704 1 -0.0109726 0.403855 -0.122142 0.422064 
157 1 -0.01918 0.146773 0.0511831 0.15662 
54 1 -0.0603673 -0.0652478 -0.37385 0.384273 
493 1 0.00141306 0.224415 -0.0597326 0.232233 
3599 2 -0.0899668 0.228731 -0.0808793 0.258754 
204 1 0.0244556 0.167576 -0.154585 0.229295 
254 1 -0.04194 0.177915 -0.147002 0.234569 
2988 1 -0.0354754 0.228385 -0.156739 0.279259 
3030 1 -0.169119 0.287023 -0.0829763 0.34332 
67 1 0.183566 0.0449748 -0.0466557 0.194669 
674 1 0.0331643 0.0612279 -0.208601 0.219916 
4050 2 0.0862953 0.21865 -0.0793425 0.248093 
234 1 0.0681619 -0.0421427 -0.0747591 0.109595 
2934 1 0.0438892 0.123493 -0.0383235 0.136549 
3479 2 -0.0195767 0.686232 -0.0872887 0.692038 
1036 1 0.110125 0.0469844 -0.0641942 0.135853 
3369 1 -0.100907 0.105893 0.0989168 0.176579 
3607 2 -0.0707784 0.134625 -0.0900322 0.176746 
3139 1 -0.11869 -0.0318979 0.0207016 0.124633 
644 1 -0.0469648 -0.00466961 -0.00327019 0.0473095 
4269 2 -0.148048 -0.0317493 0.20418 0.254196 
1278 1 -0.0638675 0.0662348 -0.132456 0.161278 
4089 2 0.0403454 0.0928103 0.116487 0.154308 
214 1 -0.0359801 0.0643633 -0.0167425 0.0756142 
640 1 -0.0859547 0.092288 0.124067 0.176912 
199 1 -0.0600093 -0.118997 0.00231227 0.133292 
245 1 -0.12354 0.00216013 0.110442 0.165724 
2758 1 -0.0854352 0.0317657 0.0881374 0.126793 
3056 1 -0.116799 -0.00337742 0.0551852 0.129224 
3468 2 -0.182644 -0.0226812 0.187234 0.262545 
563 1 -0.140515 0.131179 -0.0203928 0.193309 
3644 2 -0.0265244 -0.0604165 -0.146667 0.160826 
249 1 -0.15006 0.0647979 0.405925 0.437598 
4163 2 -0.126503 -0.136189 0.30683 0.358741 
2684 1 -0.381841 0.372913 -0.156896 0.556312 
181 1 -0.185314 -0.108326 0.186628 0.284439 
46 1 -0.0820424 -0.353252 0.25616 0.444 
3603 2 -0.0920478 -0.55331 0.00759988 0.560966 
580 1 -0.11778 -0.0633289 0.154754 0.204528 
551 1 -0.144905 -0.110538 -0.188305 0.262059 
78 1 0.114546 0.0923148 0.0628218 0.159967 
95 1 -0.110156 -0.0779742 0.140471 0.194798 
1179 1 0.149517 0.362408 0.108135 0.406679 
312 1 0.579195 0.224142 -0.418738 0.749031 
1102 1 0.0414509 0.512341 -0.444456 0.679524 
240 1 0.138658 0.360931 -0.409897 0.563482 
146 1 0.254518 0.0424545 0.176208 0.312459 
3701 2 0.143977 0.00720187 0.120177 0.18768 
135 1 -0.0946154 -0.108328 0.0389997 0.149024 
66 1 0.0686553 -0.0740618 -0.578695 0.587441 
3513 2 -0.0380671 -0.211428 -0.528364 0.570367 
587 1 -0.0610006 0.00706454 0.0742195 0.0963302 
134 1 0.00200273 0.247714 0.00769693 0.247842 
3003 1 -0.0633809 0.13257 0.126166 0.193675 
2995 1 -0.0629165 -0.0195258 -0.198844 0.209473 
685 1 -0.0314533 0.130885 0.00977966 0.134966 
191 1 -0.0257546 0.112293 0.0470842 0.124459 
195 1 -0.0106608 0.153136 0.089085 0.177483 
3092 1 -0.0479364 0.0247269 0.0683986 0.0871074 
4195 2 -0.149561 -0.117551 -0.0316202 0.192838 
602 1 -0.210732 0.114243 -0.00424448 0.239745 
3518 2 -0.208483 0.149343 0.0697822 0.265779 
143 1 0.119263 0.0252637 0.0065217 0.122084 
540 1 -0.0816087 0.185386 -0.101776 0.226685 
3196 1 -0.0199576 -0.405357 -0.671273 0.784424 
6 1 -0.0543264 0.159161 -0.0824628 0.187307 
2004 1 -0.20703 -0.0821745 0.0666979 0.232514 
4173 2 0.146917 0.139167 -0.0806713 0.217853 
2950 1 -0.0278751 -0.156734 -0.0111664 0.159585 
427 1 0.0732134 -0.0601445 0.00756437 0.0950515 
690 1 0.0615808 -0.119518 -0.0283952 0.137415 
3010 1 0.027266 0.058602 0.0621186 0.0896457 
80 1 -0.247587 0.0890867 0.123948 0.290859 
902 1 -0.0189347 -0.0023289 0.0940955 0.0960099 
742 1 0.114672 0.0869928 0.142892 0.202818 
3115 1 -0.126966 0.242961 0.0715967 0.283331 
2926 1 -0.0839697 -0.0992607 0.115259 0.173748 
710 1 -0.116283 -0.018372 0.0900365 0.148209 
2977 1 -0.0467119 -0.10698 0.0745849 0.138526 
354 1 0.0756633 0.0784525 0.140481 0.177805 
3512 2 -0.0398547 0.0574191 -0.0100041 0.0706076 
949 1 -0.131658 0.137941 0.0864975 0.209388 
559 1 -0.0857475 -0.0798471 -0.0692192 0.136086 
205 1 -0.422512 0.123859 0.0852452 0.448469 
694 1 -0.137433 0.311106 0.173623 0.381863 
861 1 -0.151256 -0.144631 0.147227 0.255875 
3549 2 -0.0876561 -0.0563771 -0.0901204 0.137781 
3401 1 -0.160297 0.127341 0.112579 0.233634 
286 1 -0.102789 0.0355896 0.0023484 0.108801 
221 1 -0.0842061 0.102913 -0.0871397 0.158982 
1077 1 -0.00785986 0.0630963 -0.0284831 0.0696721 
3409 1 -0.037815 0.024342 0.0891059 0.0998117 
3341 1 -0.0941357 0.127981 -0.0479614 0.165955 
512 1 0.247838 0.120981 0.118601 0.30021 
300 1 -0.0963256 0.0611102 -0.0241444 0.116602 
393 1 -0.0456239 0.0600829 -0.04706 0.0889165 
2740 1 -0.0607058 0.170899 0.131087 0.223776 
100 1 -0.0296002 0.0801337 0.0522237 0.100124 
4264 2 0.303488 0.0828299 0.0135758 0.314881 
3197 1 -0.15091 0.029604 0.0174513 0.154774 
277 1 -0.174132 -0.0636364 -0.0215726 0.186646 
364 1 -0.0617321 -0.0488734 0.0435901 0.0899975 
1367 1 0.0023999 -0.0296299 -0.0324968 0.0440423 
411 1 -0.177385 0.0480784 0.0528581 0.191235 
4154 2 -0.286957 0.215449 -0.00289732 0.358847 
92 1 -0.271034 -0.558768 -0.289336 0.685125 
3150 1 0.436626 1.32689 -0.875316 1.64847 
966 1 -0.157645 0.0499689 0.105775 0.196309 
3389 1 0.0105848 -0.190191 -0.055708 0.198464 
362 1 -0.149981 0.0209924 -0.0463041 0.158363 
478 1 -0.119206 0.207617 -0.0524879 0.245091 
2696 1 -0.519369 -0.180548 -0.632407 0.838022 
4159 2 -0.0609556 -0.130814 0.18936 0.238086 
3612 2 -0.214206 0.357249 0.147813 0.441995 
309 1 0.0288555 0.248188 -0.153122 0.293047 
2479 1 -0.0404117 0.172205 0.00292761 0.176907 
780 1 -0.238854 -0.0372301 -0.13698 0.277851 
2710 1 -0.0776796 0.0503827 -0.258308 0.2744 
3313 1 -0.137298 0.0677658 -0.141605 0.208554 
2365 1 -0.306459 0.143194 -0.225334 0.406444 
306 1 -0.262011 0.0993532 -0.359341 0.455683 
3588 2 -0.190715 -0.921757 -0.558577 1.09454 
3290 1 -0.2613 0.0771457 -0.0401724 0.275396 
439 1 -0.206561 0.124761 -0.181317 0.301842 
3097 1 -0.264131 -0.0220425 -0.60675 0.662115 
3482 2 -0.0639068 -0.0755523 -0.0292222 0.10318 
903 1 -0.0776728 -0.554285 -0.145076 0.578197 
3333 1 -0.128794 0.0534903 -0.295029 0.32633 
3249 1 -0.123778 0.133017 -0.0302918 0.184207 
3379 1 -0.139202 -0.0614625 0.167849 0.226557 
2873 1 0.268591 -0.38279 0.536721 0.711856 
3526 2 -0.216111 -0.405304 -0.324341 0.562292 
1324 1 0.0177124 0.0722005 0.0619587 0.0967756 
4014 2 -0.117599 -0.0366933 0.166764 0.207331 
3233 1 -0.150555 -0.135637 -0.0448309 0.207543 
3301 1 -0.0196047 -0.0379393 -0.106866 0.115083 
3393 1 0.00244999 0.103129 0.0833251 0.132607 
462 1 -0.0660789 0.00098687 0.143458 0.157948 
2966 1 0.106711 0.0942385 0.100647 0.17435 
750 1 -0.0120551 0.0623637 0.00924325 0.0641872 
3162 1 -0.0831604 0.132614 0.0147299 0.157223 
3022 1 -0.00602783 0.1491 -0.102158 0.180841 
449 1 0.155684 -0.019495 -0.0877368 0.179764 
3094 1 -0.000713093 -0.032537 -0.0582469 0.0667223 
886 1 0.105798 0.065401 0.350003 0.371447 
3647 2 -0.117159 -0.0538485 -0.0216232 0.130742 
2890 1 -0.116775 0.0207045 0.0839572 0.145306 
1285 1 0.0492668 0.234769 0.346113 0.421115 
3305 1 0.0282612 0.289259 0.0928496 0.305108 
3209 1 -0.0174007 0.0243783 -0.187425 0.189803 
287 1 0.0316282 -0.0514368 -0.0559816 0.0823409 
943 1 -0.0664624 0.00242059 0.140056 0.155045 
4318 2 -0.135472 0.019703 0.194107 0.237526 
4006 2 -0.156482 0.117888 0.126277 0.233089 
356 1 0.0773922 0.0323085 -0.0404497 0.0931105 
3404 1 0.251456 -0.151166 0.0271743 0.294652 
1145 1 0.0442259 0.144068 0.0623065 0.163075 
3531 2 -0.128705 -0.0387788 0.0963559 0.165388 
3883 2 -0.0221509 0.108554 0.0957122 0.146409 
3227 1 -0.0360275 -0.0278018 0.157445 0.16389 
373 1 0.0944591 0.391438 -0.160766 0.43358 
398 1 0.0415853 0.00120791 0.017018 0.0449489 
3658 2 0.00976995 0.143105 0.171799 0.223806 
2861 1 -1.24278 0.714152 -1.39656 2.00122 
3573 2 -0.392215 0.00426747 -0.656888 0.765084 
4297 2 0.446541 0.338887 -0.278114 0.625772 
3221 1 0.112711 0.515046 0.114086 0.539436 
412 1 -0.109326 0.0999057 -0.0751443 0.166072 
836 1 -0.148913 -0.293859 0.106473 0.346215 
3380 1 0.143002 0.10221 0.0922969 0.198533 
3319 1 0.271905 -0.551658 0.217127 0.652229 
3360 1 -0.372532 0.239031 0.27302 0.520054 
3093 1 -0.763259 -0.18533 -0.425231 0.893159 
3324 1 0.0232319 -0.43526 0.143541 0.458906 
2745 1 -0.0530867 -0.186823 0.080766 0.210343 
3546 2 -0.668981 -0.166038 -0.735278 1.00784 
614 1 0.0985992 -0.00751089 0.150307 0.179918 
3392 1 0.0736573 -0.0105299 -0.324336 0.332762 
1449 1 -0.205278 -0.217506 0.133579 0.327553 
3337 1 0.109489 -0.077857 -0.264391 0.296567 
951 1 -0.324839 -0.161859 0.14775 0.391853 
228 1 0.00351642 -0.446792 0.0351928 0.44819 
2737 1 -0.420991 -0.122206 0.00440512 0.438391 
2959 1 -0.119644 -0.0532126 0.14511 0.195456 
4116 2 -0.236432 -0.177987 0.172334 0.34246 
3483 2 -0.0899306 0.125126 0.0774972 0.172482 
2961 1 -0.360323 0.310578 0.0788502 0.482191 
3303 1 0.0864046 0.192819 0.143989 0.255691 
3095 1 0.242744 0.0298639 0.0996355 0.264091 
389 1 0.177203 -0.0979832 0.00879289 0.20268 
716 1 0.143123 0.0662237 -0.0349251 0.161523 
601 1 0.0917389 0.180243 0.0489836 0.208093 
3617 2 0.0783118 0.0189628 0.128358 0.151553 
206 1 0.101099 0.0733557 0.0596629 0.138426 
71 1 0.161618 0.00654701 -0.0492585 0.169085 
4185 2 0.096795 -0.0798254 -0.0399919 0.131684 
3561 2 0.109148 0.148123 -0.00229017 0.184008 
3676 2 0.212217 0.128993 0.200448 0.319146 
1313 1 0.176852 0.103448 0.0753756 0.218311 
838 1 -0.00712892 0.0408229 0.0509226 0.0656539 
388 1 -0.100587 -0.0457386 0.0410629 0.117881 
3668 2 0.079069 0.104747 0.105659 0.168487 
460 1 0.0425586 -0.0286864 0.0726032 0.0889121 
499 1 0.0377486 0.112837 0.157455 0.197356 
444 1 0.0464793 0.094933 -0.0815762 0.133519 
3548 2 -0.270693 0.311217 -0.101873 0.424863 
394 1 0.353875 0.643923 -0.131792 0.746481 
160 1 0.118362 -0.0829689 0.146177 0.205575 
482 1 0.0207778 -0.134891 -0.294431 0.324525 
291 1 0.0625086 0.0424152 0.0551608 0.0935366 
1314 1 0.142274 0.130567 0.174044 0.259963 
375 1 0.136741 0.00882034 -0.241487 0.277654 
94 1 -0.156959 0.374772 -0.195204 0.450771 
37 1 0.145839 -0.354834 -0.0451361 0.386282 
3672 2 0.110933 0.00435955 -0.162181 0.196539 
4309 2 -0.383015 -0.0394936 -0.0132546 0.385274 
1212 1 -0.181657 0.112341 0.1968 0.290431 
3257 1 -0.218238 0.106721 -0.760512 0.798371 
1354 1 -0.0285978 -0.409649 -0.343103 0.535116 
901 1 -0.191682 -0.216256 -0.0730853 0.298078 
392 1 -0.236009 0.0339599 0.0405984 0.241871 
436 1 -0.137223 0.126053 -0.0550959 0.194307 
3293 1 -0.257116 0.159028 0.182721 0.35325 
792 1 0.0648565 -0.0880566 -0.290197 0.31012 
4284 2 -0.347405 0.394802 0.873948 1.01997 
3350 1 -0.29927 1.19064 0.648993 1.38866 
355 1 -0.830599 0.18035 0.644804 1.06686 
318 1 -0.064402 0.147052 -0.207869 0.262643 
490 1 0.474576 -0.0721798 -0.917316 1.03533 
1373 1 -1.33757 0.332663 -0.369815 1.42707 
3180 1 -0.779549 -0.48182 -0.117069 0.923879 
3314 1 0.00589596 -0.178958 -0.177241 0.251943 
626 1 0.102432 -0.136662 0.103868 0.199893 
3242 1 -0.136688 0.0481708 -0.000630719 0.144929 
353 1 0.181428 0.060044 -0.00942126 0.191337 
3808 2 0.0687834 0.04362 0.0194107 0.0837295 
332 1 -0.0786402 -0.0521068 0.0886208 0.129434 
3535 2 -0.00544276 0.218467 -0.0227752 0.219718 
334 1 -0.11172 -0.108191 0.045038 0.161911 
2732 1 -0.0444115 0.0914474 0.0914036 0.13671 
433 1 0.0300519 -0.0331055 0.0404703 0.060307 
4271 2 0.0732489 0.0543498 0.191861 0.212438 
1172 1 0.0957074 -0.133492 0.0659384 0.176997 
652 1 0.0741629 -0.0024154 -0.0458152 0.0872066 
3568 2 0.0490499 -0.00428467 -0.0106783 0.0503813 
3560 2 0.0939947 -0.0742744 -0.103547 0.158347 
3433 1 0.0598316 0.0167173 -0.021934 0.0658816 
3419 1 -0.0520338 -0.0829204 0.113839 0.150142 
402 1 0.167635 0.275649 -0.132457 0.348753 
4143 2 -0.0369518 -0.0768682 -0.227599 0.243055 
1409 1 0.223896 -0.0685145 -0.231795 0.329473 
325 1 -0.136497 0.0713243 0.170529 0.22978 
292 1 0.0626294 -0.105968 0.00520218 0.123202 
3444 1 -0.0512312 0.179501 -0.104985 0.214166 
908 1 0.13304 -0.268008 -0.0700476 0.307302 
3504 2 0.248196 -0.0161117 0.0171602 0.24931 
899 1 0.181565 -0.152617 -0.0786722 0.249894 
822 1 0.276464 -0.0349495 0.14373 0.313547 
3082 1 0.069023 0.0152602 0.0382829 0.0803905 
3331 1 0.0627481 -0.0492585 -0.203592 0.218663 
874 1 0.056386 -0.171179 0.127228 0.22061 
980 1 0.00415928 -0.353933 0.0707308 0.360955 
225 1 -0.0829074 -0.323844 -0.0448995 0.33729 
248 1 0.0534992 0.0932302 0.183079 0.212301 
1289 1 0.0357173 0.0665265 0.0108279 0.0762807 
810 1 -0.0215492 0.0582529 -0.0490556 0.0791469 
491 1 -0.0811681 0.0263198 -0.0558224 0.101966 
4280 2 0.780826 0.0793108 -0.689682 1.04482 
416 1 0.206414 -0.205431 0.305087 0.421766 
365 1 -0.123851 -0.165706 -0.16593 0.265198 
3799 2 0.169569 -0.230937 -0.13757 0.317823 
2819 1 -0.0689739 -0.225357 -0.0512395 0.241182 
2776 1 -0.183705 -0.337306 -0.259266 0.463403 
382 1 -0.22246 0.142218 -0.226848 0.348102 
295 1 -0.0164049 -0.096499 -0.132383 0.16464 
3291 1 0.288551 -0.196991 -0.142029 0.377147 
3312 1 -0.0474274 0.0613183 -0.119467 0.142413 
957 1 0.286376 -0.185239 -0.210955 0.401032 
474 1 -0.25413 -0.0326199 -0.868386 0.905395 
2973 1 0.0507806 0.39784 -0.263329 0.479789 
3070 1 0.0603896 -0.0231271 -0.241365 0.249878 
3383 1 -0.0375181 0.021505 0.0225452 0.0487684 
3434 1 -0.0762478 -0.125273 -0.0570827 0.157371 
3643 2 0.254791 -0.258239 -0.924136 0.99279 
1304 1 0.159509 -0.0254347 0.174454 0.237748 
4256 2 -0.673298 -0.359514 -0.246226 0.802003 
783 1 -0.577281 -0.11614 0.17932 0.615546 
107 1 -0.229587 -0.0212172 0.125061 0.262299 
496 1 -0.101129 0.159738 0.0124068 0.189465 
2993 1 -0.570233 -0.0140482 -0.275582 0.63349 
279 1 0.314414 0.386713 0.0693761 0.503206 
4285 2 0.0137723 -0.208684 -0.206389 0.293828 
517 1 0.501584 0.114732 0.0943208 0.523112 
471 1 -0.180437 0.268137 0.0752937 0.331849 
4028 2 -0.383469 0.109666 0.203901 0.447941 
917 1 -0.154758 -0.217446 0.0491044 0.271375 
3322 1 -0.116624 0.0710685 0.0537919 0.146784 
274 1 -0.0660437 -0.107069 0.0998773 0.160627 
1091 1 -0.0208406 -0.109513 0.163108 0.197565 
3396 1 -0.116214 -0.098623 0.157451 0.219142 
3863 2 -0.218186 -0.151203 0.0420541 0.268767 
3378 1 0.241961 0.126619 -0.0926261 0.288369 
404 1 0.0389761 -0.172696 -0.107214 0.206973 
502 1 -0.0482872 -0.0905352 0.155086 0.185957 
3487 2 0.0172997 0.0119817 0.170672 0.171964 
3435 1 -0.10626 -0.100018 0.0744789 0.163835 
2545 1 -0.183697 -0.108125 0.0231349 0.214408 
3327 1 -0.0817977 -0.0117998 -0.145353 0.167205 
3674 2 -0.0377808 -0.0043077 0.123761 0.129471 
1418 1 -0.00332634 -0.168872 -0.0715111 0.183419 
443 1 -0.0436279 0.0286716 -0.0867414 0.10124 
855 1 0.00232583 -0.0754878 -0.106634 0.13067 
3476 2 0.0288865 -0.115036 0.064525 0.135023 
4307 2 0.00556401 -0.0240118 -0.00557658 0.025271 
2869 1 -0.11666 -0.0731646 0.0161007 0.138643 
177 1 0.0329651 -0.0375075 -0.073114 0.0885391 
363 1 -0.122819 -0.298295 -0.165358 0.362502 
1450 1 0.0123151 -0.00474284 -0.0696432 0.0708825 
3559 2 0.0127729 -0.0156919 0.0908816 0.0931066 
4237 2 -0.0154737 -0.129917 -0.0681647 0.147527 
319 1 -0.129306 -0.0156889 -0.142047 0.192727 
875 1 0.0268514 -0.0978449 0.0656306 0.120839 
830 1 -0.0423551 -0.0349937 -0.065079 0.0851692 
268 1 0.000811897 0.0261873 0.00875733 0.0276247 
937 1 -0.139369 -0.0158987 -0.00920202 0.140574 
854 1 -0.0216548 0.0407207 -0.131252 0.139119 
442 1 -0.149848 -0.0792939 -0.0478075 0.176146 
863 1 0.0688767 -0.309783 -0.43823 0.541068 
699 1 -0.0516061 0.167508 0.070715 0.189005 
3281 1 0.244019 -0.179651 0.236823 0.384584 
964 1 0.455826 -0.0882562 -0.800134 0.925084 
793 1 0.561745 0.142705 -0.477267 0.750804 
3397 1 -0.0237534 -0.124157 -0.16158 0.205152 
486 1 0.232082 0.11489 -0.646804 0.696719 
419 1 1.06984 -0.286316 -0.181297 1.12224 
314 1 -0.0495158 -0.121565 0.0843343 0.15602 
31 1 -0.0340355 -0.0758879 -0.18945 0.206902 
1254 1 -0.129005 0.0210736 -0.0452669 0.138331 
1337 1 0.185465 -0.0818889 -0.103509 0.227634 
757 1 0.196451 -0.172841 -0.137684 0.295675 
3544 2 0.31634 0.0223729 0.0389912 0.319518 
1430 1 0.162415 -0.163298 0.205467 0.308644 
3200 1 0.220807 0.148716 0.171658 0.316762 
329 1 -0.358701 0.0601957 -0.0240853 0.364513 
85 1 0.0484478 0.0587907 0.17309 0.189113 
430 1 -0.096389 -0.133404 0.029347 0.167179 
3240 1 0.0161895 0.0375646 0.224863 0.228553 
113 1 -0.0307821 -0.0368525 0.0342555 0.0589837 
504 1 -0.213089 -0.123268 0.114502 0.2715 
2795 1 -0.244194 0.034318 0.269934 0.365613 
4182 2 0.825008 -0.238683 -0.741425 1.1346 
187 1 -0.259476 0.0228637 0.264398 0.371156 
3545 2 0.139836 0.000493172 -0.189338 0.235379 
1442 1 -0.0126359 -0.215211 0.0405887 0.21937 
647 1 0.151243 0.0909121 0.00818096 0.176653 
581 1 -0.159475 -0.169162 0.0173692 0.23313 
3541 2 0.0744651 -0.130415 -0.0170945 0.151147 
786 1 -0.00650745 -0.196484 0.0488828 0.202578 
800 1 -0.0241814 -0.111688 -0.0702826 0.134159 
367 1 0.0264341 -0.079847 -0.00306414 0.0841647 
2687 1 0.0676779 -0.0910169 -0.0644535 0.130455 
4298 2 -0.20857 -0.156341 0.25181 0.362426 
347 1 -0.135995 -0.0981769 0.0529637 0.175894 
4098 2 -0.137615 -0.181792 0.575113 0.618661 
2814 1 0.0160511 0.0727857 -0.0111578 0.075365 
1723 1 -0.0761634 -0.0546397 -0.0310532 0.0987454 
3264 1 -0.140699 -0.180299 -0.00475553 0.22875 
440 1 -0.132446 0.0352211 0.129514 0.188564 
431 1 -0.0829013 -0.0813073 0.110434 0.160247 
208 1 -0.0245895 -0.197486 -0.24166 0.313057 
968 1 -0.0407088 -0.101447 0.170443 0.202483 
501 1 0.0568058 -0.100003 0.207639 0.237364 
2656 1 -0.0729697 0.0300952 -0.104143 0.130676 
801 1 -0.185509 -0.271642 0.0558305 0.333646 
421 1 -0.130801 -0.184107 -0.255534 0.34103 
357 1 -0.376041 0.434049 -0.63917 0.859269 
308 1 -0.00183825 -0.145781 -0.108219 0.181567 
4152 2 -0.0105587 0.0108284 0.022698 0.0272753 
3436 1 -0.0367478 -0.111654 0.101449 0.155271 
781 1 0.187255 -0.237147 -0.149823 0.337269 
461 1 -0.0737864 0.216195 -0.00701542 0.228548 
840 1 0.00337982 -0.0302556 -0.138134 0.141449 
3192 1 0.167944 -0.267905 -0.666295 0.737515 
3339 1 -0.406744 0.345089 -0.622534 0.819803 
3371 1 0.216022 0.124052 -0.329414 0.412999 
2884 1 -0.0834945 -0.130972 -0.135285 0.205978 
307 1 -0.122676 -0.0741659 -0.0318717 0.146853 
771 1 -0.267336 0.12784 0.0945557 0.31105 
3266 1 0.0441457 -0.0831338 -0.17709 0.200552 
423 1 0.0871169 -0.00387705 -0.0199777 0.0894623 
3223 1 -0.178809 -0.0906781 0.0795726 0.215701 
819 1 -0.02375 -0.171685 -0.0175049 0.174202 
3678 2 -0.252855 0.0358902 0.131342 0.287184 
4239 2 0.844319 1.37268 -0.755917 1.78004 
128 1 -0.0691033 -0.094825 -0.053503 0.128956 
907 1 0.0763136 -0.0104813 -0.0532401 0.0936383 
1641 1 0.0784473 0.0650577 -0.0663111 0.121588 
1109 1 -0.317699 0.144074 0.0932442 0.361088 
1544 1 0.0353744 -0.0299359 0.0141409 0.0484507 
1612 1 0.146112 0.133391 0.133705 0.238786 
1535 1 0.0792626 0.0954311 -0.00202399 0.124072 
1474 1 0.11098 0.133847 0.129809 0.216984 
606 1 -0.0619268 0.0224814 0.103824 0.122963 
573 1 0.198718 0.0774263 0.0773823 0.226874 
3844 2 0.185281 -0.0281707 0.0531184 0.194793 
631 1 0.10429 0.0376879 0.114304 0.159255 
3600 2 0.100093 0.0661743 0.0106264 0.12046 
1569 1 -0.00878202 -0.107768 -0.121537 0.162672 
891 1 0.000243963 0.0160251 -0.0871698 0.0886309 
63 1 0.114396 0.013357 0.138537 0.180159 
577 1 -0.0684912 0.0862412 0.347298 0.364341 
565 1 0.130654 0.0855992 0.146098 0.213875 
3616 2 0.0918454 0.0299292 0.172112 0.197368 
3418 1 0.0820101 -0.0145831 0.0581219 0.10157 
4176 2 0.116252 0.063685 0.167579 0.213666 
386 1 0.182341 0.112113 -0.0300414 0.216148 
69 1 -0.0394158 -0.0430824 0.245729 0.252572 
298 1 0.245703 0.00507582 -0.15744 0.291862 
4319 2 -0.0911231 0.0784667 -0.0377604 0.126041 
655 1 -0.228322 0.0619476 0.230825 0.330528 
1053 1 -0.0649037 -0.00514784 0.0601771 0.0886582 
621 1 -0.0702262 -0.0543446 -0.066304 0.110821 