ITEM: TIMESTEP
8200
ITEM: NUMBER OF ATOMS
4320
ITEM: BOX BOUNDS pp pp pp
0.0000000000000000e+00 1.9309999999999999e+01
0.0000000000000000e+00 1.9309999999999999e+01
0.0000000000000000e+00 9.6549999999999994e+00
ITEM: ATOMS id type c_displacement[1] c_displacement[2] c_displacement[3] c_displacement[4] 
3196 1 -0.242261 0.0242297 -0.210803 0.322049 
381 1 -0.239541 -0.0890716 0.16696 0.305269 
327 1 0.0718934 0.0799996 0.085467 0.13738 
484 1 0.0244344 0.216968 0.235852 0.321401 
728 1 0.0116093 0.0639948 0.169539 0.181586 
303 1 0.232731 -0.213937 -0.406861 0.515236 
255 1 0.0505625 0.0434988 -0.013449 0.0680411 
546 1 -0.104094 0.0712526 0.200349 0.236753 
4034 2 0.189973 0.0237748 -0.354548 0.402938 
3608 2 0.0193602 0.157597 -0.0985421 0.186874 
2945 1 0.181192 0.180765 -0.0533195 0.261438 
3230 1 0.149543 0.173492 0.0495226 0.23434 
3651 2 -0.06974 0.135025 0.0935596 0.178462 
66 1 -0.0379362 -0.0277791 -0.274741 0.278736 
400 1 -0.0288598 0.0437821 0.0449067 0.0690389 
677 1 0.00496704 -0.122638 0.232529 0.262935 
87 1 -0.0144335 0.1836 0.0190883 0.185153 
623 1 -0.0266404 0.0482814 -0.0730341 0.0915138 
4053 2 0.100943 0.0872966 0.114936 0.176126 
2478 1 0.124582 0.0815802 0.214972 0.261512 
727 1 -0.000994767 -0.0216551 -0.312883 0.313633 
688 1 0.0616472 0.0137137 0.045609 0.0779014 
58 1 0.0444167 0.0017864 -0.119594 0.127588 
3514 2 -0.0436532 0.0241263 -0.140957 0.149521 
18 1 0.0449309 0.153556 0.0865403 0.181899 
190 1 -0.130833 0.161197 -0.107587 0.233831 
298 1 -0.0355609 -0.122353 -0.0686612 0.144739 
3618 2 0.246072 0.0627985 -0.011149 0.254204 
110 1 -0.0389466 -0.10828 -0.124591 0.1696 
3611 2 0.0494156 -0.115061 -0.0486321 0.134335 
106 1 -0.173006 0.0102965 0.0375175 0.177326 
217 1 0.107954 0.0532421 0.114522 0.166145 
775 1 0.0474673 0.0388389 0.00544926 0.0615735 
3627 2 0.0826038 0.179397 -0.0509012 0.203955 
180 1 0.14545 0.0777639 0.20843 0.265793 
3478 2 0.128293 -0.00253675 -0.036465 0.133399 
920 1 0.0826951 0.0300826 0.127559 0.154967 
3118 1 -0.0363755 0.137817 0.0520745 0.151751 
562 1 -0.0658023 -0.00130316 -0.0201812 0.0688399 
70 1 -0.1466 0.144822 -0.0246556 0.207541 
121 1 0.0430387 -0.0508633 0.0499737 0.0832873 
1118 1 -0.0202649 -0.0665071 0.0681021 0.097323 
210 1 -0.0517265 -0.00732145 0.118651 0.129643 
4214 2 0.0767613 -0.0179538 0.148186 0.16785 
226 1 0.129113 -0.0253937 0.0703428 0.149208 
626 1 0.0997655 0.0553247 0.0471714 0.123447 
215 1 -0.147182 -0.0322374 0.0380737 0.155407 
532 1 -0.0825252 0.0153362 0.0600757 0.103222 
3578 2 -0.0736544 0.037782 -0.0584711 0.101348 
473 1 -0.0583023 -0.0565722 0.0435335 0.0921669 
246 1 -0.0262756 0.104994 -0.0350093 0.113754 
155 1 -0.157423 -0.0124904 -0.0645974 0.170619 
817 1 0.256473 -0.0230616 0.341869 0.428 
4071 2 0.156332 0.0475259 0.270125 0.315699 
2838 1 -0.0201534 -0.000975179 -0.0125809 0.0237779 
536 1 -0.0114903 0.0829057 0.0980547 0.128919 
894 1 -0.0681194 -0.0403411 -0.318311 0.328009 
289 1 0.0922145 -0.132645 0.204537 0.26064 
351 1 -0.102166 0.049878 -0.0252763 0.116467 
3135 1 -0.0137208 0.260654 -0.184014 0.319358 
197 1 -0.145574 0.145727 -0.0809495 0.221316 
1415 1 0.0607221 0.146543 -0.0221758 0.160168 
527 1 -0.15676 0.0144008 -0.000850253 0.157422 
3002 1 -0.341976 -0.00248891 -0.0380282 0.344093 
3189 1 0.171087 0.0865061 0.0204272 0.192799 
712 1 -0.105691 0.00840081 -0.021508 0.108184 
718 1 -0.21425 -0.301777 0.134307 0.393714 
3469 2 0.0208365 0.00687949 0.135852 0.137613 
96 1 -0.0436889 -0.0637217 -0.15578 0.173887 
3346 1 0.107508 0.0603813 0.0609005 0.137524 
4177 2 0.172744 -0.390619 0.0657604 0.432143 
93 1 -0.0853486 0.17418 0.0615587 0.2035 
569 1 0.0950701 0.139479 0.00486221 0.168868 
639 1 -0.288206 0.0333994 0.13715 0.320918 
21 1 -0.048912 -0.0433472 0.0146386 0.066975 
3353 1 -0.19999 -0.282819 -0.14287 0.374692 
823 1 0.0796153 -0.00391187 0.0496583 0.093914 
2596 1 0.021791 -0.0882624 0.115107 0.146679 
50 1 -0.028523 -0.214977 0.0489802 0.222324 
2495 1 0.158757 0.0244068 0.0600259 0.171472 
28 1 -0.155036 0.0163302 0.0464303 0.162661 
3055 1 0.107244 0.0510513 0.0380784 0.12473 
12 1 0.128723 0.083277 0.046505 0.160211 
738 1 0.235845 -0.267792 0.0291688 0.358031 
65 1 -0.0728352 0.101992 0.125021 0.177024 
232 1 -0.116567 0.151176 -0.086659 0.209647 
4170 2 0.0017695 -0.104608 0.26988 0.28945 
2453 1 0.20139 0.0420825 0.0881413 0.223825 
3167 1 0.0778991 0.0809243 0.00209314 0.112345 
339 1 0.220374 0.275981 -0.0617172 0.358523 
390 1 0.133353 0.169967 0.0557792 0.223121 
203 1 -0.0461563 0.0415955 0.0560307 0.0836662 
3582 2 0.0668989 0.388388 -0.00756694 0.39418 
3632 2 0.0696126 0.270325 -0.110007 0.300039 
231 1 0.160474 0.0930842 0.066438 0.197055 
323 1 0.0815284 0.192338 -0.075494 0.222126 
3244 1 0.029619 0.17743 -0.217337 0.282124 
118 1 0.175903 0.125975 -0.0907048 0.234604 
608 1 0.047523 -0.0307804 0.0709688 0.0907879 
3916 2 -0.246485 -0.0746579 0.0584724 0.264098 
2960 1 -0.199512 0.0316425 -0.102058 0.226323 
2735 1 -0.226124 -0.246389 0.116274 0.354061 
29 1 -0.115234 0.307057 -0.148492 0.360017 
753 1 0.0785908 -0.172481 0.0403403 0.193787 
3467 2 -0.26075 0.139422 0.236413 0.378577 
553 1 -0.193691 0.116798 -0.529934 0.576184 
3251 1 -0.190655 0.158698 -0.371601 0.44679 
2768 1 0.127731 0.103501 -0.066385 0.177298 
4228 2 0.0391905 0.109499 -0.269741 0.293745 
437 1 0.0167478 0.0563381 -0.276002 0.28219 
53 1 0.132643 0.173533 -0.167016 0.274958 
593 1 -0.0590261 0.18675 0.252393 0.319472 
609 1 0.105252 0.0686424 -0.149197 0.195063 
3040 1 -0.0907958 0.0871081 -0.186893 0.225301 
725 1 -0.0105497 -0.00154065 0.133591 0.134015 
4187 2 -0.137392 -0.110536 -0.369264 0.409207 
1454 1 -0.0917019 0.0471747 -0.0760754 0.128149 
167 1 -0.0716604 0.0244942 0.202131 0.215852 
610 1 0.231097 0.16579 0.0497112 0.288727 
89 1 0.0469383 -0.0444326 -0.064077 0.0910127 
3149 1 0.0849109 0.0225733 0.0799921 0.11882 
550 1 0.0298014 -0.0285127 0.0573 0.0706002 
147 1 0.0964813 0.009679 0.00177849 0.0969819 
247 1 0.0285697 -0.00907066 0.187822 0.190199 
3152 1 -0.0643217 -0.0111183 0.0645167 0.0917785 
3554 2 -0.0372009 0.0833228 0.0163409 0.0927017 
3786 2 0.0705211 0.115194 -0.00887525 0.135357 
5 1 0.0429419 0.0588229 0.0600479 0.0943922 
2591 1 0.0444175 0.0336312 -0.0183137 0.0586461 
3232 1 0.0818339 0.0429779 0.0712965 0.116735 
1215 1 0.103688 0.00645871 -0.00810559 0.104204 
859 1 0.141957 0.0323684 -0.071144 0.162053 
2936 1 0.046234 0.155621 -0.149751 0.220864 
2461 1 -0.0418014 -0.027581 -0.157872 0.165625 
988 1 0.142248 0.11429 -0.125854 0.221666 
23 1 0.0795331 -9.07522e-05 -0.0841622 0.115796 
59 1 0.0252357 -0.0474479 0.0520517 0.0748166 
3712 2 0.0189885 -0.107444 -0.0799072 0.13524 
3730 2 0.0828683 0.0552334 -0.11954 0.155588 
43 1 0.185696 0.0344768 -0.261791 0.32281 
3743 2 0.034494 0.160285 0.0243726 0.165756 
3023 1 0.0843025 0.192536 -0.10413 0.234564 
151 1 0.152771 0.0626512 -0.0595998 0.175546 
3199 1 0.0922683 0.131377 -0.0284464 0.163042 
3006 1 0.246865 0.0349623 0.081208 0.26222 
424 1 0.124248 0.0721493 -0.0249451 0.145826 
3460 2 0.110152 0.0652712 0.0328045 0.132174 
4289 2 -0.0139305 0.189543 -0.130871 0.230755 
3679 2 -0.267136 0.0841437 -0.0650337 0.287526 
2500 1 0.0911502 -0.0464282 -0.0176656 0.103808 
3188 1 0.118932 0.342647 -0.0398118 0.364879 
529 1 -0.325601 -0.151365 -0.26544 0.446526 
825 1 0.172966 0.162812 0.179376 0.297659 
691 1 -0.0628251 -0.472697 -0.084975 0.484366 
140 1 -0.103747 -0.124252 0.15019 0.220814 
3464 2 -0.275158 -0.738917 -0.0815591 0.792693 
3491 2 -0.36621 0.303213 -0.225467 0.526197 
2931 1 -0.0177341 -0.111401 0.271496 0.293998 
174 1 -0.105289 -0.0977479 -0.0414709 0.149534 
3493 2 0.27419 0.0147165 0.32209 0.423248 
216 1 0.112092 -0.0754035 0.144537 0.197842 
1480 1 -0.0433484 -0.300065 0.301943 0.427887 
2968 1 0.0606813 -0.153002 0.128249 0.208662 
98 1 0.159684 -0.314368 0.285119 0.453452 
40 1 0.0586282 -0.0198148 -0.0191006 0.0647667 
1331 1 -0.30535 -0.0149518 0.208707 0.370163 
133 1 0.024675 0.0483372 0.00782559 0.0548323 
1130 1 -0.0464692 0.0385394 0.050012 0.0783956 
3041 1 -0.0162608 -0.289275 -0.202156 0.353287 
604 1 -0.00160843 0.0558282 0.0742953 0.0929471 
721 1 -0.245075 0.00433752 -0.107859 0.267795 
2994 1 -0.00831769 -0.0380244 0.148502 0.153518 
3164 1 0.124227 0.169573 -0.0259843 0.211808 
241 1 -0.0261804 0.116353 0.150401 0.191947 
143 1 0.133544 0.0721137 0.0152505 0.152535 
64 1 -0.00513728 -0.100313 -0.0680511 0.121327 
193 1 0.138961 0.0878135 -0.0428684 0.169879 
44 1 0.101355 -0.0789245 -0.00499588 0.128557 
2996 1 0.0161226 0.0858407 -0.259243 0.273561 
4212 2 -0.0366609 0.191306 -0.172987 0.260512 
3279 1 0.0805581 0.0279807 -0.158291 0.179801 
178 1 0.0992065 -0.0496485 -0.215967 0.242793 
2494 1 -0.0203649 -0.0764056 0.0865537 0.117235 
257 1 -0.00976842 0.069476 -0.0383189 0.0799417 
580 1 -0.0357812 0.0778492 0.150925 0.173548 
949 1 -0.0819576 0.0878686 0.0097916 0.120556 
330 1 0.0480422 0.189825 -0.0211587 0.19695 
600 1 -0.0214749 0.0484918 -0.133544 0.143689 
338 1 0.00753561 -0.0769439 -0.030058 0.0829495 
4101 2 0.0585297 -0.0989836 -0.00585892 0.115143 
4217 2 0.0121536 -0.0695755 0.00209686 0.0706602 
2981 1 -0.037212 -0.00870195 0.00574925 0.0386459 
103 1 -0.0719438 0.0960785 -0.0953559 0.153296 
479 1 -0.0673311 0.0794777 0.00496576 0.104282 
3335 1 -0.103243 -0.00272432 -0.0529751 0.116073 
1457 1 -0.150957 -0.0758354 -0.00666787 0.169067 
3037 1 -0.0749562 0.230192 -0.0267913 0.243566 
4253 2 -0.112802 0.000550082 -0.0670935 0.131249 
387 1 -0.0565893 0.045396 -0.0224907 0.0759538 
3736 2 -0.0168874 0.267533 0.0424672 0.271409 
78 1 0.0105039 0.0551252 0.0512293 0.0759839 
717 1 -0.00380889 -0.144324 0.199461 0.246229 
508 1 -0.0346774 -0.105932 0.0904419 0.14354 
3537 2 0.154379 -0.11752 -0.0187705 0.194926 
747 1 0.0175158 -0.00396906 0.0992302 0.100842 
497 1 0.0189513 -0.0991392 0.0796024 0.128547 
958 1 0.000460127 -0.362885 0.0825648 0.37216 
3130 1 0.0292399 -0.128761 -0.0549179 0.143004 
4163 2 0.0179145 -0.20284 0.0652475 0.213828 
3394 1 -0.00544563 -0.100411 0.0140167 0.101531 
3830 2 -0.321788 -0.162133 0.144038 0.388048 
4204 2 -0.0324111 -0.135661 0.134292 0.19362 
86 1 0.352654 0.0572848 -0.0601804 0.36231 
759 1 0.0983613 -0.0511889 -0.153343 0.189233 
3411 1 -0.122175 0.0345415 0.213986 0.248817 
835 1 -0.13154 0.156449 0.0555906 0.211824 
3057 1 0.382512 0.0858932 -0.130834 0.413292 
3620 2 -0.0620009 0.403889 0.055044 0.412311 
704 1 0.0732636 0.31323 -0.0178053 0.322176 
3599 2 -0.0621315 0.426513 0.0582644 0.434935 
157 1 0.075321 0.13059 0.148516 0.211622 
54 1 0.0293071 0.0568389 -0.0104735 0.0648017 
493 1 0.0909973 0.22649 0.0804338 0.256997 
204 1 -0.00540828 0.0446439 0.0151151 0.0474425 
254 1 -0.0374913 0.174724 0.0249675 0.180436 
1133 1 0.0717211 -0.0403178 0.0942097 0.12508 
67 1 0.125831 0.167287 -0.0531645 0.215975 
2988 1 -0.0383154 0.203767 0.040005 0.211162 
3030 1 -0.161036 0.193963 0.0335485 0.254322 
4050 2 0.0565983 0.117479 -0.0401286 0.136437 
2004 1 -0.0842534 0.0725934 0.0184645 0.112736 
540 1 -0.0530484 0.18494 0.012179 0.192782 
3216 1 -0.0622082 0.0508678 -0.0561351 0.0980232 
3479 2 0.0842693 0.556375 -0.0340987 0.563753 
234 1 0.0695945 -0.0272255 -0.133973 0.153406 
1036 1 0.0611387 -0.0349168 -0.090616 0.114754 
3369 1 -0.0169527 0.013176 0.0563793 0.0603293 
3607 2 -0.00783078 0.22794 -0.0309527 0.230166 
3139 1 0.058938 0.0715104 -0.163775 0.188175 
644 1 -0.0432896 -0.0367849 -0.0349702 0.0667086 
1278 1 -0.0137688 -0.0658396 0.0523117 0.0852112 
4269 2 0.0045247 0.0582699 0.113983 0.128094 
3408 1 -0.141384 0.0325607 0.0904789 0.170986 
563 1 -0.107861 0.0531673 0.0147864 0.121158 
214 1 -0.0104403 0.0651045 0.0191619 0.0686642 
640 1 0.113719 0.102023 0.0310101 0.155892 
199 1 0.110839 -0.055167 0.00218971 0.123829 
245 1 -0.0704799 0.0331094 0.131324 0.152675 
2758 1 0.000235361 0.0773733 0.0166757 0.0791502 
3056 1 -0.0892656 0.143935 0.0164371 0.170164 
3468 2 -0.173308 0.0595736 0.102533 0.209994 
4089 2 0.146352 0.233122 0.0861633 0.288425 
249 1 -0.0709399 -0.0793402 0.0849579 0.136181 
2684 1 -0.240009 0.0244047 -0.181136 0.301679 
3096 1 0.000693484 0.109022 -0.00818752 0.109331 
240 1 0.038079 0.0504587 -0.0717175 0.0956007 
181 1 -0.123685 -0.0736883 -0.0188221 0.145197 
46 1 0.121619 -0.178238 -0.00042524 0.215778 
3211 1 0.0263993 0.00186314 0.0713642 0.0761134 
3603 2 0.150581 -0.389165 0.26638 0.495058 
95 1 -0.137426 -0.0759354 0.0907769 0.181363 
80 1 -0.190753 0.0172515 0.00662837 0.191646 
2939 1 -0.149672 0.0189643 -0.135909 0.203058 
1102 1 0.222172 0.500959 -0.387128 0.670961 
3701 2 0.424607 -0.0102275 -0.129504 0.444035 
3513 2 0.0818485 -0.214833 -0.106813 0.253498 
312 1 0.379191 -0.0366487 -0.209213 0.434625 
587 1 0.0333602 0.0431036 0.0361925 0.0654272 
135 1 -0.00813908 -0.203009 0.00642752 0.203274 
3512 2 -0.0954448 -0.0337522 -0.000733585 0.10124 
134 1 -0.0114882 0.065794 0.105238 0.124643 
191 1 0.0886899 0.134397 0.146809 0.217902 
2934 1 0.0337774 0.100793 -0.0937751 0.141753 
195 1 0.0250781 0.130948 0.0817708 0.156406 
2995 1 -0.0307568 -0.0640743 -0.105706 0.127378 
685 1 -0.0141856 -0.0870193 -0.0889984 0.125277 
602 1 -0.066707 -0.0225297 0.148082 0.163969 
3092 1 0.00928587 0.0582011 0.0988017 0.115045 
4195 2 -0.0497523 -0.0155125 -0.0713475 0.0883538 
3003 1 -0.0357619 0.0629012 0.0249108 0.0765247 
1179 1 0.125345 0.124475 0.0691512 0.189703 
674 1 0.118982 0.0763116 -0.017678 0.142452 
182 1 0.0626262 0.000525419 -0.00586664 0.0629025 
427 1 -0.0741312 -0.0876381 -0.0216355 0.116807 
4173 2 0.0314015 0.0699362 -0.0213304 0.0795745 
2950 1 -0.0401083 -0.0560886 0.113992 0.133225 
6 1 -0.114863 0.182422 0.00161098 0.215578 
690 1 -0.0221828 0.00375241 -0.0028076 0.0226725 
902 1 0.043742 0.0480872 0.0946347 0.114811 
354 1 0.00636454 0.0510079 0.0955969 0.108541 
3115 1 -0.163918 0.296887 -0.0884657 0.350482 
742 1 0.0572394 0.0298036 0.053908 0.0840873 
154 1 -0.0916068 -0.101749 0.00222065 0.136929 
2926 1 -0.223237 -0.00392649 0.0657771 0.232759 
710 1 -0.123469 -0.00609818 -0.0511251 0.133774 
446 1 -0.0221191 0.109592 0.0713855 0.132648 
3518 2 -0.175015 0.127062 0.0318981 0.218615 
2977 1 -0.0370868 0.182 0.0352127 0.189049 
3007 1 -0.113685 0.142249 -0.0729383 0.196161 
233 1 0.23401 0.0474061 0.212541 0.319659 
1149 1 0.0678677 -0.183008 0.357293 0.407132 
3643 2 0.0494319 -0.112214 -0.0432289 0.130016 
187 1 -0.107817 -0.0838583 0.210371 0.250824 
3078 1 0.0438463 0.103873 -0.0418859 0.120277 
4094 2 0.272322 -0.045075 -0.109924 0.29711 
3841 2 -0.0828024 -0.0390898 -0.103573 0.138245 
559 1 -0.0437798 0.0711606 -0.0906976 0.123315 
205 1 -0.336391 0.0633903 -0.00821071 0.34241 
694 1 -0.326156 0.208701 0.200047 0.435836 
861 1 -0.309676 -0.160566 0.0581898 0.353647 
3549 2 -0.163887 -0.0463256 -0.0760978 0.186537 
3401 1 -0.184311 0.0393565 0.150978 0.241483 
1077 1 -0.10926 0.166348 -0.00736143 0.199157 
265 1 -0.294898 0.431225 -0.43018 0.676738 
3393 1 -0.0809186 0.14348 0.0683024 0.178325 
635 1 -0.0946785 -0.129029 -0.141461 0.213597 
512 1 0.0147822 0.20598 0.03325 0.209169 
300 1 -0.228895 0.150377 0.0572963 0.279801 
393 1 -0.0878859 -0.0356969 0.0139103 0.0958734 
2740 1 -0.132169 0.276119 0.103454 0.32313 
4123 2 -0.15596 -0.0945546 -0.0433018 0.187455 
4006 2 -0.341969 0.00196529 0.122 0.363085 
3341 1 -0.14436 0.165527 0.00328178 0.219659 
221 1 -0.15839 0.240145 -0.0153686 0.288086 
277 1 -0.343414 0.0239595 -0.0169729 0.344667 
364 1 -0.142313 0.00247727 0.0431914 0.148744 
1367 1 -0.0619563 -0.0639051 -0.0448556 0.0996718 
411 1 -0.119843 0.0610184 0.0373992 0.139586 
3389 1 -0.0996954 -0.0831077 -0.0576619 0.142025 
160 1 -0.207496 0.307843 -0.022031 0.371897 
4304 2 -0.0163381 0.0412967 -0.081459 0.0927789 
966 1 -0.0042912 0.0842047 0.0678076 0.108198 
3808 2 0.0471338 0.0296728 0.126675 0.138378 
357 1 -0.227407 -0.0744954 0.0177111 0.239953 
362 1 0.0532245 0.0176495 0.0548911 0.078469 
478 1 -0.148724 0.212327 -0.0912699 0.274831 
4159 2 -0.394622 0.637366 -0.223428 0.782229 
2696 1 -0.052517 0.0487187 -0.033434 0.079053 
780 1 -0.00459178 -0.0268389 -0.0618815 0.0676071 
3612 2 -0.0556166 0.0395329 -0.0251526 0.0727236 
2710 1 0.0416739 -0.0840261 -0.0725028 0.118549 
3313 1 0.0846274 -0.0556388 -0.105873 0.146515 
3333 1 0.144778 -0.158199 0.0497372 0.22014 
924 1 0.194562 0.123693 -0.0965302 0.249945 
3319 1 -0.0115485 -0.0716782 -0.038549 0.0822019 
3526 2 -0.014124 -0.431721 0.0282874 0.432877 
3678 2 -0.137896 0.159637 0.224215 0.30785 
3290 1 -0.0704528 0.0669108 -0.0305001 0.101838 
4014 2 -0.172794 -0.0287436 0.129726 0.217974 
903 1 0.0254144 -0.0656456 -0.235485 0.245781 
3303 1 -0.0406079 0.112654 0.140723 0.184778 
3249 1 -0.113821 -0.0252341 -0.0949513 0.150359 
92 1 0.124092 -0.168472 -0.0290398 0.211246 
3379 1 0.0905305 0.000941864 0.0042613 0.0906356 
228 1 0.0539783 -0.0658412 -0.180093 0.199204 
1449 1 -0.0178846 0.0043021 -0.0566298 0.0595424 
3631 2 0.0209604 0.0165307 -0.0495557 0.0562882 
3162 1 -0.194709 0.179759 -0.0227632 0.265976 
462 1 -0.23485 0.0461974 0.135853 0.275218 
2966 1 0.0418347 0.0288586 0.0911611 0.104371 
3022 1 -0.0545185 0.279163 0.00531169 0.284486 
750 1 -0.108176 0.14413 0.0162528 0.180941 
449 1 -0.00768323 0.0769843 -0.129552 0.150895 
100 1 0.00515741 0.019913 -0.0436801 0.0482813 
886 1 -0.0393639 0.0834924 0.0619356 0.11116 
287 1 -0.123295 -0.00183778 0.0202105 0.124954 
3647 2 -0.31651 0.00855811 0.0138934 0.31693 
2890 1 -0.00750634 0.0911837 0.0942767 0.131373 
1285 1 -0.105397 0.180878 0.183754 0.278551 
3209 1 -0.0909111 0.0921211 -0.173885 0.216765 
943 1 -0.0922435 0.105205 0.0786694 0.160517 
3305 1 -0.0685159 0.116195 -0.0139917 0.135615 
3409 1 -0.0224368 0.0216644 -0.10619 0.110676 
2961 1 -0.01937 -0.0836689 -0.139111 0.163485 
2732 1 0.150569 0.0915339 -0.117763 0.211938 
356 1 0.281204 -0.00764354 0.0319926 0.283121 
3404 1 0.0074093 -0.0490663 0.0218348 0.0542139 
4318 2 -0.23953 0.0404801 0.114435 0.26853 
3883 2 0.065013 0.105777 0.0938386 0.155632 
3227 1 0.0795608 0.0282711 -0.0012292 0.0844434 
373 1 0.135194 0.14168 -0.0503567 0.202204 
4297 2 -0.492782 0.0482017 0.374318 0.620703 
3531 2 0.0615889 -0.126118 -0.101147 0.173002 
3658 2 -0.059568 0.0489149 0.132847 0.153588 
3221 1 -0.0773139 0.243738 -0.101418 0.275084 
398 1 -0.483453 0.304656 -0.00429596 0.571455 
309 1 0.0714804 0.142285 -0.0789622 0.177735 
836 1 0.121072 -0.00439302 -0.106066 0.161021 
394 1 -0.0798978 0.0523907 0.161093 0.187295 
412 1 -0.0758718 -0.0336101 0.101818 0.131351 
1212 1 -0.176214 0.0233709 0.175427 0.249744 
3573 2 -0.125667 -0.0862067 0.0201493 0.15372 
2479 1 -0.217502 0.183901 -0.135367 0.315358 
2365 1 -0.0979317 0.0977371 -0.105307 0.173876 
3360 1 -0.0398018 0.0164848 -0.0236278 0.0491345 
3588 2 0.0996419 0.00940308 0.0576503 0.115501 
306 1 -0.104515 0.0168093 0.0542969 0.118971 
3093 1 -0.145429 0.0750724 -0.158366 0.227739 
2745 1 0.0869254 0.157877 0.111776 0.212073 
355 1 -0.164564 0.126114 0.0474075 0.212682 
3097 1 0.0469471 0.039985 -0.140076 0.153049 
3324 1 -0.157635 0.172972 -0.0195168 0.234838 
951 1 -0.0901037 0.0963858 0.0768468 0.15269 
2737 1 -0.190348 -0.249471 0.145502 0.345889 
2959 1 -0.0175319 0.102443 -0.0677352 0.124056 
4284 2 -0.395418 -0.0433595 0.156363 0.427417 
4225 2 -0.161425 0.0791234 -0.0895001 0.20082 
3483 2 -0.0604869 -0.00728925 0.0890768 0.107919 
4116 2 -0.0402149 0.0298905 -0.0389614 0.0634719 
614 1 0.195288 0.122023 0.0682869 0.240187 
353 1 0.0558107 -0.00358371 0.0125418 0.0573147 
389 1 0.0884358 -0.206373 0.0467731 0.229344 
3676 2 0.0630887 0.035114 0.0501817 0.0879282 
601 1 0.00275225 0.195472 0.00940128 0.195718 
3617 2 0.0892875 -0.0660423 0.00891652 0.111415 
206 1 -0.0435152 0.0526121 0.0494742 0.0843167 
71 1 0.029818 -0.0392783 0.0309724 0.0582339 
4185 2 0.141081 -0.0743472 -0.0646459 0.172077 
716 1 0.196014 0.140656 -0.0574896 0.248013 
3561 2 -0.0202406 0.186391 0.150433 0.240377 
388 1 -0.103416 0.023063 0.0994018 0.145284 
1313 1 0.100266 0.154305 0.0346711 0.187257 
444 1 0.0241356 0.0350931 0.0674751 0.0797931 
3668 2 -0.0184653 0.106676 0.0369141 0.114383 
838 1 -0.0191715 0.0281985 0.081864 0.0886816 
460 1 0.0547154 -0.0604651 0.22786 0.242012 
499 1 0.028909 0.0445634 -0.021611 0.0573468 
3548 2 -0.533946 -0.164562 0.0522239 0.561166 
763 1 -0.0107093 0.0945881 0.157844 0.184326 
3321 1 -0.06709 -0.153852 -0.0314346 0.170762 
4257 2 0.518306 0.411376 -0.167052 0.682479 
291 1 0.0859358 0.131848 -0.130901 0.204705 
482 1 0.00341814 -0.0903189 0.0237113 0.093442 
1314 1 -0.143955 0.0613716 0.0238316 0.158295 
3672 2 0.0807248 -0.0226501 -0.0754543 0.112796 
375 1 0.0260236 -0.0182243 -0.162652 0.165725 
94 1 0.0129376 0.0489688 -0.00366419 0.0507814 
37 1 -0.0210241 -0.0736002 0.0710816 0.104459 
4309 2 -0.190118 -0.0666502 -0.0844709 0.218455 
392 1 0.0735603 0.0804561 0.142451 0.179379 
3380 1 -0.0629555 0.109501 0.0525408 0.136801 
436 1 -0.0104918 -0.0308522 -0.0903946 0.0960892 
792 1 -0.106643 -0.0837876 0.103365 0.170521 
3293 1 -0.00444042 0.0613443 0.122394 0.136979 
901 1 -0.0447199 0.144616 0.0512151 0.159802 
318 1 0.0020719 -0.0319151 0.138783 0.14242 
2861 1 -0.134924 -0.0300163 0.119795 0.182911 
3320 1 -0.0473022 -0.0787454 0.165616 0.189386 
3314 1 0.0745081 -0.133559 0.208662 0.258707 
3350 1 0.0664978 0.19923 0.0904304 0.228675 
3180 1 -0.160569 -0.295553 0.0652905 0.342632 
3150 1 -0.166283 0.281286 0.02004 0.327374 
3257 1 -0.177821 0.0408016 -0.243804 0.304509 
3095 1 -0.213689 0.178003 0.0310984 0.279849 
286 1 -0.142057 -0.020042 0.0765422 0.162606 
3392 1 0.272334 -0.0115106 0.116583 0.296462 
3301 1 -0.136278 -0.00804062 -0.125246 0.185265 
3094 1 -0.0128447 0.0290679 0.0412985 0.0521104 
3281 1 -0.0501376 -0.0737579 0.0654573 0.110628 
3337 1 -0.0458511 0.0200384 -0.131202 0.140421 
4271 2 0.0606773 0.114901 0.116537 0.174542 
1172 1 0.113945 -0.0328813 0.0827165 0.144591 
652 1 0.0936922 -0.0411537 0.053585 0.115513 
3568 2 0.0222853 0.087643 0.0398807 0.0988352 
3433 1 0.121245 0.0508698 -0.0224591 0.133389 
3419 1 -0.00305069 0.0580656 0.11305 0.127127 
248 1 0.0417105 -0.000659362 0.136253 0.142496 
4098 2 0.0232249 -0.223624 0.358405 0.423085 
208 1 -0.01474 -0.172664 -0.184249 0.252938 
3378 1 0.130387 0.223427 0.106982 0.279939 
4143 2 -0.00362877 -0.0595732 -0.0631587 0.0868974 
325 1 0.177089 0.0520772 0.110375 0.215071 
292 1 -0.0012561 -0.156086 -0.16708 0.228649 
3444 1 0.126782 0.0203914 0.0412631 0.134879 
908 1 0.243118 -0.110869 0.036145 0.269638 
3504 2 0.409565 -0.130016 0.099892 0.441165 
423 1 0.207072 0.154855 0.105288 0.279186 
502 1 0.0979225 -0.035302 0.128968 0.165734 
3435 1 0.0153069 -0.12075 0.0742157 0.142558 
3331 1 0.0414165 -0.0410217 -0.0529298 0.078738 
430 1 -0.171362 -0.0222266 0.0904484 0.195038 
4182 2 0.0678226 -0.0518304 0.0772993 0.115158 
874 1 0.0424009 -0.204023 0.141714 0.252004 
980 1 -0.0311772 -0.0170414 0.112305 0.117791 
225 1 -0.164737 -0.216526 0.0284624 0.273554 
439 1 0.0434876 0.16757 0.0564711 0.182099 
1254 1 -0.00811128 0.0204978 -0.0353691 0.0416764 
1442 1 -0.0534985 -0.0539257 0.100667 0.126111 
471 1 -0.0337481 0.467916 -0.252135 0.532594 
822 1 0.217917 -0.141777 0.19095 0.322568 
4280 2 -0.0809666 0.0800863 -0.0442335 0.122172 
416 1 -0.0893368 -0.0639358 0.00314714 0.109903 
365 1 -0.0204945 -0.070664 -0.0337424 0.0809443 
3799 2 0.00270226 -0.035011 0.0976153 0.103739 
2819 1 0.119122 -0.118291 0.0710789 0.182305 
382 1 0.00372389 0.147661 -0.0979761 0.177249 
295 1 0.0204832 0.0169034 -0.0602677 0.0658595 
404 1 -0.120804 0.0456559 -0.00684086 0.129324 
1354 1 -0.135902 -0.1442 0.282082 0.344722 
2776 1 0.0627055 0.00172066 0.176842 0.187638 
3266 1 0.217257 0.180766 0.0803459 0.293824 
2973 1 -0.150014 0.0612068 0.0732485 0.177808 
957 1 0.0665616 -0.145959 -0.0359684 0.164403 
795 1 0.037997 -0.109624 0.0616446 0.131382 
4256 2 -0.324917 -0.626577 0.196927 0.732769 
490 1 -0.102875 0.103494 -0.122658 0.190628 
863 1 0.0651118 0.154303 0.143368 0.220461 
419 1 0.365827 -0.46262 0.655966 0.882121 
4285 2 -0.0199888 0.365896 -0.292265 0.46872 
107 1 -0.324694 0.061187 -0.0871622 0.341712 
496 1 0.142023 0.0730348 0.152376 0.220733 
2993 1 -0.276343 0.277247 -0.0280213 0.392449 
517 1 0.220603 -0.168531 0.0497985 0.282043 
279 1 0.0313005 0.283635 0.134961 0.315663 
771 1 -0.171168 0.188399 0.104463 0.275146 
22 1 0.0676654 -0.0101465 -0.0648694 0.0942847 
917 1 0.0673737 -0.132537 0.00845874 0.148919 
3322 1 0.0650173 0.319372 0.166939 0.366189 
3863 2 -0.0696787 -0.146034 0.0661752 0.174815 
274 1 0.0482218 0.0573989 -0.00697209 0.07529 
1091 1 0.0189596 -0.0799244 0.0764857 0.112238 
3396 1 0.103935 0.0202575 0.0931345 0.141021 
329 1 -0.178435 0.158102 -0.02588 0.239802 
4028 2 -0.200876 0.295572 0.196889 0.408019 
2545 1 -0.0745731 0.0359913 -0.0225458 0.0858186 
3327 1 -0.103023 0.00764992 -0.0295883 0.10746 
3674 2 -0.0565924 0.0633047 0.112493 0.140943 
1418 1 0.0475394 -0.139251 -0.0455942 0.154045 
443 1 -0.0997121 0.033851 -0.0387331 0.112199 
855 1 -0.0280643 -0.0975146 -0.16711 0.195505 
3312 1 0.0220303 0.0332583 0.0551676 0.0680802 
647 1 0.344932 0.209179 0.112452 0.418784 
4307 2 -0.0238038 -0.0176295 -0.0704504 0.0764243 
810 1 -0.0504016 0.090508 0.00875929 0.103965 
2869 1 -0.0566546 -0.0962672 0.088745 0.142663 
3476 2 0.0974405 -0.148868 0.00272639 0.177943 
177 1 -0.0955554 0.0890749 -0.020669 0.132259 
363 1 0.0135441 -0.142764 -0.191915 0.239576 
1450 1 -0.101165 0.0349161 0.0132142 0.107833 
3559 2 -0.0323077 0.0272362 0.0408549 0.0587769 
347 1 -0.0440666 -0.0285119 -0.0354046 0.063311 
319 1 -0.162974 -0.0121957 0.178339 0.241897 
4237 2 -0.0590725 -0.000474254 -0.0287582 0.0657025 
875 1 0.0220063 0.0540665 0.0892853 0.106674 
830 1 -0.0361738 -0.0738791 0.074758 0.111155 
937 1 -0.0717642 -0.0615001 0.0389186 0.102211 
268 1 0.106536 0.067012 0.038952 0.131749 
854 1 -0.102592 -0.157614 -0.102987 0.214414 
442 1 0.129702 -0.0620329 0.0729724 0.161232 
501 1 0.0421358 -0.0338865 0.15242 0.161727 
314 1 -0.0318616 -0.0691824 -0.0878902 0.116302 
1289 1 0.0590461 0.168285 0.0189418 0.179346 
3291 1 0.115272 -0.120824 0.025368 0.168907 
3070 1 0.0330229 -0.101729 0.196951 0.224118 
899 1 0.188711 -0.0701715 0.0574958 0.209384 
474 1 0.057762 0.190142 -0.0343363 0.201666 
964 1 0.00499856 -0.0658557 -0.0510867 0.0834973 
793 1 -0.0388413 -0.0549372 -0.0189587 0.0699012 
3397 1 0.0135214 -0.0470175 0.0237274 0.0543733 
1337 1 0.207619 -0.0592642 0.0100115 0.216144 
3544 2 0.116486 -0.0437796 0.0516945 0.134752 
1430 1 0.0197469 -0.0772893 0.101933 0.129437 
3200 1 0.125508 0.0579585 0.137195 0.194766 
757 1 -0.128689 -0.0741117 0.0568252 0.159004 
3278 1 0.157588 -0.300351 -0.00709876 0.339257 
402 1 0.219965 0.160847 0.0344885 0.274674 
819 1 -0.0632637 -0.0442186 -0.054079 0.094245 
3383 1 -0.107753 0.0833194 0.0682792 0.152364 
85 1 0.047196 -0.0592382 0.0949939 0.121493 
4239 2 0.597734 1.1841 -0.976983 1.64738 
3240 1 -0.0888895 -0.0955235 0.133385 0.186595 
113 1 0.109981 0.0836794 0.0615946 0.151301 
504 1 -0.11757 -0.0353175 0.152588 0.19584 
699 1 -0.124492 0.0562763 0.0638525 0.150806 
2795 1 -0.0713892 0.09003 0.146478 0.186165 
491 1 -0.0438166 0.0685206 -0.070091 0.107367 
581 1 -0.0337842 -0.0829989 0.0985231 0.13318 
3541 2 0.161595 -0.070624 0.183918 0.254807 
786 1 0.0622923 -0.0951907 0.0919852 0.146297 
800 1 -0.0384595 -0.0898474 -0.0851885 0.129649 
367 1 0.144142 -0.186682 0.0988608 0.255735 
2687 1 -0.0145917 -0.138159 -0.00618756 0.139065 
3545 2 0.0646229 -0.0770048 -0.0434201 0.109504 
3420 1 -0.0192011 -0.0630873 -0.0186768 0.0685384 
31 1 -0.00925437 0.0368502 -0.181177 0.185119 
3434 1 -0.0432681 -0.15061 0.0410302 0.161984 
2814 1 0.0267073 0.0279895 -0.0353779 0.0524241 
1723 1 0.0155305 -0.058523 -0.0445572 0.0751763 
3264 1 0.0657929 -0.0740862 0.0354859 0.105246 
440 1 -0.0806992 -0.00945924 0.0182083 0.0832669 
431 1 0.00463043 -0.0090448 0.0661729 0.0669485 
308 1 0.124963 -0.0851689 -0.0606702 0.162943 
968 1 0.112351 0.0128249 0.0882129 0.143418 
421 1 -0.0492172 -0.0130036 -0.0440372 0.0673105 
801 1 -0.0816937 -0.147362 0.0163838 0.169286 
2656 1 -0.0106822 -0.00122922 0.000765543 0.0107799 
3339 1 0.143886 -0.0126528 0.0629206 0.15755 
461 1 0.0437605 0.120518 -0.0103476 0.128633 
2884 1 -0.00149736 -0.0803952 -0.0518304 0.0956662 
3436 1 0.109809 -0.14537 0.0134977 0.182682 
3192 1 0.10091 -0.161318 -0.269663 0.330037 
4152 2 0.0125325 -0.0180786 0.0684946 0.0719403 
486 1 -0.0793905 -0.179822 -0.024558 0.198095 
3371 1 0.070602 0.110457 -0.13219 0.186171 
840 1 0.0988983 -0.0215146 -0.160643 0.189868 
781 1 0.163642 -0.213036 0.0533786 0.273884 
307 1 -0.109929 0.0174355 0.0197002 0.113033 
1304 1 0.136273 -0.0493047 0.0790879 0.165094 
3082 1 0.0513168 -0.0342175 0.0828065 0.103253 
2873 1 0.0654043 0.035604 0.242239 0.253427 
3535 2 0.0359608 0.166343 0.0710689 0.184429 
4154 2 -0.247922 0.208225 -0.0808841 0.333714 
4264 2 0.0240844 0.115925 0.0510041 0.128919 
783 1 -0.248024 -0.0532978 -0.0904794 0.269338 
253 1 0.163587 -0.0127962 -0.0381561 0.168465 
3482 2 0.0941894 -0.104398 -0.113681 0.180815 
3234 1 -0.167031 0.151066 -0.0201338 0.22611 
128 1 0.110957 0.0510821 0.0551875 0.134039 
907 1 0.0979797 -0.10054 0.0548297 0.150714 
1641 1 0.0702929 0.0312492 -0.12643 0.147994 
1300 1 0.055102 -0.00127257 -0.0588526 0.0806317 
345 1 -0.00339633 -0.081969 0.00140867 0.0820514 
891 1 -0.0221112 -0.0816019 -0.0243462 0.0879802 
1535 1 0.167264 -0.128128 -0.043476 0.215138 
573 1 -0.0218064 -0.0201552 0.0488569 0.057173 
3844 2 -0.0148612 -0.316978 0.0753303 0.326145 
631 1 0.129548 0.0342943 0.0204791 0.135566 
3600 2 0.290721 0.0114074 -0.127878 0.317808 
1569 1 -0.0599229 -0.0796426 -0.152379 0.18208 
1365 1 0.0398229 0.00728527 0.156203 0.161363 
683 1 0.105153 -0.256003 -0.0231493 0.277724 
1474 1 0.0400689 0.0549975 0.0771916 0.102902 
63 1 0.055693 0.104392 0.0460214 0.126955 
577 1 0.00857217 -0.0574069 0.170656 0.180257 
565 1 0.0808561 -0.0091534 0.200192 0.216098 
3616 2 0.207786 0.0878473 0.0338643 0.22812 