ITEM: TIMESTEP
46
ITEM: NUMBER OF ATOMS
4320
ITEM: BOX BOUNDS pp pp pp
0.0000000000000000e+00 1.9309999999999999e+01
0.0000000000000000e+00 1.9309999999999999e+01
0.0000000000000000e+00 9.6549999999999994e+00
ITEM: ATOMS id type c_displacement[1] c_displacement[2] c_displacement[3] c_displacement[4] 
3196 1 0.0140118 -0.0704807 0.0430143 0.0837501 
381 1 0.030778 0.0658158 -0.0482119 0.0871974 
327 1 -0.00392614 0.00985884 -0.0761354 0.0768714 
484 1 -0.0067922 0.0656501 0.0370503 0.0756888 
728 1 -0.0233927 0.145713 -0.146624 0.208034 
817 1 0.156661 0.000456143 0.0557397 0.166282 
3586 2 0.0749677 -0.0423739 0.0524953 0.100854 
3460 2 0.0692808 0.121313 -0.0310577 0.143113 
3679 2 -0.0335107 0.00420652 0.139671 0.143696 
2945 1 -0.0516693 -0.0138835 -0.127874 0.138616 
3230 1 0.0508206 0.0614177 -0.0630853 0.101659 
3651 2 0.0289631 -0.00769513 0.0361192 0.0469326 
66 1 0.109317 0.101677 -0.0108321 0.149685 
400 1 -0.0707012 -0.0212396 -0.0842998 0.112055 
677 1 0.0301867 0.0337895 0.0947307 0.105009 
623 1 0.0346833 0.0631566 0.0469696 0.0860106 
87 1 0.0712108 8.39047e-05 -0.0202718 0.0740401 
3006 1 0.0657325 -0.0578106 0.128071 0.155129 
3877 2 0.079587 0.0632769 -0.0677871 0.122201 
727 1 0.0844817 0.0125524 -0.0291233 0.0902379 
688 1 0.0511595 -0.00591587 0.00747133 0.0520395 
58 1 0.0874286 -0.0428422 -0.0558839 0.11226 
3514 2 -0.0564676 -0.0147393 -0.0300985 0.065664 
18 1 0.077435 -0.0361274 -0.0452902 0.0967087 
3618 2 -0.0261645 0.0195954 0.0953587 0.100806 
190 1 0.0716503 0.0836752 -0.0994109 0.148384 
298 1 -0.0312742 -0.12013 -0.0640553 0.139687 
559 1 0.0699144 0.0156571 -0.0302354 0.0777647 
215 1 0.0281183 -0.0267547 0.0237763 0.0455167 
180 1 0.0758094 0.0254734 0.0223508 0.0830393 
106 1 -0.0450164 0.0439087 -0.0697328 0.0938995 
217 1 -0.0243149 0.0185428 0.0570857 0.0647597 
775 1 -0.0828205 -0.0360699 -0.101159 0.135622 
3627 2 0.0603536 0.0273146 -0.0184639 0.0687718 
608 1 0.186281 0.0410067 0.044639 0.195895 
3118 1 -0.0466813 0.0284687 -0.050655 0.0745354 
562 1 -0.110243 0.0149029 -0.043516 0.119454 
70 1 0.00635693 -0.00704295 0.0803759 0.0809339 
121 1 -0.00963416 -0.0544002 0.0301236 0.0629256 
1118 1 -0.0008571 0.0364149 0.0716624 0.0803884 
210 1 0.0167506 -0.0119954 0.110091 0.112002 
232 1 0.00682033 0.0127834 -0.0732568 0.0746759 
4214 2 -0.00578086 0.125592 0.0507286 0.135573 
3712 2 -0.0291851 -0.020616 -0.0460535 0.0582899 
65 1 -0.0582686 -0.0698945 -0.0413538 0.099953 
226 1 0.0334504 -0.0527717 0.0633624 0.0889864 
532 1 0.0376324 0.0109396 0.105929 0.112946 
3578 2 -0.0203931 -0.0552204 -0.0620038 0.0854965 
473 1 0.0705182 -0.0601307 -0.0395234 0.10075 
246 1 0.0471623 -0.0249436 0.0358228 0.064263 
221 1 -0.0412694 -0.0161111 0.0265478 0.051648 
4034 2 0.0343362 -0.0405679 0.0531921 0.075194 
4071 2 0.0740912 -0.0645166 0.070216 0.120757 
2838 1 0.0486528 0.0600071 0.0418233 0.0878472 
536 1 0.0549132 0.0968229 0.120927 0.164357 
894 1 0.0797695 -0.0706263 0.0306223 0.110856 
289 1 -0.0478541 -0.0225762 0.042409 0.0678102 
351 1 0.0782768 0.0665351 0.0240213 0.105505 
197 1 0.00497217 -0.0630796 -0.0772312 0.0998419 
3135 1 -0.123658 0.0138924 0.0236152 0.126657 
303 1 -0.0340627 0.0256639 0.0412402 0.0593267 
1415 1 0.0690304 -0.105286 -0.0121694 0.126485 
527 1 0.0262542 -0.0220528 0.000194996 0.0342877 
3002 1 -0.0418315 0.0557453 0.102432 0.123894 
3189 1 -0.00975742 -0.143026 -0.0168633 0.144347 
712 1 -0.0356771 -0.0685152 0.0123529 0.078229 
718 1 0.0576258 -0.0788994 0.049825 0.109674 
3469 2 0.0415351 -0.0426928 0.0124328 0.0608474 
110 1 0.0638487 -0.0448386 -0.032348 0.0844604 
4177 2 -0.0655019 -0.0645296 0.0811262 0.122622 
93 1 -0.0195651 -0.0685724 0.0764114 0.104516 
569 1 0.0288062 -0.0255871 -0.106096 0.112876 
639 1 0.0154791 -0.0584133 0.0287532 0.0669213 
21 1 -0.0102338 -0.0822375 0.0823931 0.11686 
96 1 0.052118 0.0731225 -0.0571052 0.106415 
167 1 0.0485055 0.0363058 0.0318047 0.0684283 
1178 1 0.0381059 0.0541955 -0.0875078 0.109758 
3353 1 -0.0124866 -0.096585 -0.00521179 0.0975281 
823 1 0.0285032 -0.00212613 -0.0400116 0.049172 
2596 1 -0.00852603 -0.0758801 0.0330799 0.0832152 
50 1 -0.0186003 -0.0932698 0.0270982 0.0988916 
2495 1 0.115705 -0.0291394 0.0259862 0.122115 
28 1 -0.0755522 0.0947287 0.0529248 0.132222 
3055 1 0.0866848 0.0755653 -0.0065832 0.115186 
12 1 0.110995 0.0464119 -0.0289685 0.123746 
3835 2 -0.0119313 -0.08382 0.0655592 0.10708 
4170 2 0.0147709 -0.0239156 -0.059511 0.0658156 
738 1 0.00109952 -0.0426946 -0.0388873 0.0577604 
2453 1 -0.033799 0.0915932 0.054186 0.111659 
3167 1 0.0757244 -0.0837947 -0.0451796 0.121643 
339 1 0.0903528 -0.0493602 0.0146418 0.103992 
390 1 0.0323984 -0.0170083 0.060832 0.0709892 
203 1 0.0224832 0.000570236 -0.0196815 0.0298861 
3582 2 -0.0207467 0.0467189 -0.114511 0.125403 
3632 2 -0.00949096 -0.0512549 0.023371 0.0571257 
231 1 0.00897839 0.0189189 0.0546494 0.0585243 
323 1 -0.0373181 -0.0512001 0.0126027 0.0645981 
3244 1 0.00596693 -0.0188705 -0.0647838 0.0677395 
118 1 0.108598 -0.00205935 0.0350025 0.114118 
155 1 -0.0721982 -0.064864 -0.0874641 0.130652 
2735 1 -0.0467176 -0.047635 -0.135916 0.151409 
2768 1 -0.0402264 0.116713 0.0864406 0.150705 
2960 1 0.00203953 0.0391569 -0.0135456 0.0414838 
29 1 -0.0414222 -0.0319961 0.123853 0.134459 
753 1 -0.0141316 -0.038328 -0.0219477 0.0463728 
3467 2 -0.0126475 0.0226109 0.0212838 0.0335293 
3916 2 -0.0885733 0.0325647 0.0259566 0.0978746 
3251 1 -0.00102994 -0.029157 0.00928862 0.0306181 
4289 2 0.00494242 0.0383813 -0.0836351 0.0921541 
725 1 -0.0661243 0.0694903 0.0482486 0.107374 
1133 1 -0.0442187 0.0204032 -0.0326527 0.0586326 
546 1 -0.116832 0.0163773 -0.0232755 0.120248 
4187 2 -0.0568354 -0.0104819 0.0478978 0.0750622 
437 1 -0.13648 0.00269184 -0.0240694 0.138613 
53 1 0.0106633 0.00319526 -0.0774794 0.078275 
593 1 -0.0951321 -0.00362709 0.000508957 0.0952025 
609 1 -0.0122175 0.0332345 -0.119628 0.124758 
3040 1 0.037421 0.0256905 -0.0595149 0.0748489 
737 1 0.0892811 0.101901 0.00248736 0.135503 
233 1 -0.0415821 0.0330177 0.0724874 0.0898536 
610 1 -0.0905737 -0.0607474 0.0434326 0.117389 
247 1 0.0564214 0.0701917 0.045465 0.100883 
89 1 -0.0277889 -0.0800494 -0.0487508 0.0977588 
3149 1 -0.0992945 -0.0329287 0.100439 0.145023 
550 1 0.0368432 -0.0303849 -0.0926575 0.10424 
147 1 -0.0143033 -0.0965646 0.144562 0.174435 
3554 2 -0.138255 -0.0267842 -0.0423671 0.147061 
3786 2 -0.0878061 -0.0170569 0.0238761 0.0925792 
5 1 0.0656805 0.024362 -0.0729343 0.101128 
2591 1 0.0219889 0.122894 0.0642609 0.140413 
3232 1 -0.0559797 0.0546827 -0.02562 0.0823427 
1215 1 0.021295 0.034798 0.0276497 0.0492837 
859 1 0.0506227 -0.00725355 0.0480298 0.070158 
3152 1 0.0487371 -0.0729398 -0.0444271 0.0983326 
2936 1 -0.0463635 -0.111792 -0.0666285 0.138153 
59 1 0.0151614 -0.0508936 0.0013528 0.0531211 
2461 1 -0.0953486 -0.0681072 -0.111192 0.161535 
988 1 -0.0225989 0.08784 -0.174283 0.196472 
23 1 0.0179053 -0.0374248 -0.0191034 0.0456744 
3743 2 -0.0164513 0.0278054 0.0198484 0.0379176 
3023 1 -0.0612164 0.0632241 -0.0689766 0.111815 
151 1 0.0802347 -0.0688388 0.11675 0.157502 
43 1 0.0648711 -0.0294599 -0.135156 0.152785 
3730 2 -0.0482173 -0.00206673 -0.0104571 0.0493815 
1454 1 -0.0780245 0.0245948 0.0136072 0.082933 
424 1 0.0576938 -0.0415461 0.00560991 0.0713171 
3478 2 0.0499515 -0.0161372 -0.0259799 0.0585706 
3611 2 0.0751512 -0.0150254 -0.0592996 0.0969016 
3346 1 -0.0331854 -0.0338977 -0.0175631 0.0505845 
3199 1 -0.0250953 0.0368936 -0.0862833 0.0971376 
100 1 -0.0238297 -0.145995 0.00312107 0.14796 
78 1 0.0598887 0.00449705 -0.0438865 0.0743836 
2500 1 -0.0653684 -0.0739713 -0.0543161 0.112672 
3188 1 -0.0607185 0.153481 -0.0172395 0.165953 
3491 2 -0.0128575 0.100856 0.0540707 0.115155 
717 1 -0.08317 0.0136991 0.0620638 0.104675 
2931 1 -0.0919335 0.00439743 -0.0311255 0.0971592 
691 1 0.0105523 0.0326379 0.00944029 0.0355767 
825 1 0.0641308 -0.0297761 0.105863 0.127304 
3634 2 0.0970702 0.0911976 0.062131 0.146969 
140 1 -0.0012808 -0.00370144 0.0627158 0.0628379 
174 1 0.00848869 -0.0820398 -0.100955 0.130363 
3493 2 0.0908756 -0.0210402 0.11102 0.145005 
529 1 0.099809 -0.0255561 -0.0157859 0.104231 
1480 1 0.0609274 -0.00836324 -0.0088927 0.0621383 
2968 1 0.0244829 -0.113049 0.0181548 0.117086 
3464 2 0.0540357 0.0206749 -0.0361303 0.0682108 
98 1 -0.0782006 -0.0565481 0.0286062 0.100655 
216 1 0.108628 -0.0249096 -0.00850245 0.111771 
40 1 0.0943102 -0.105474 -0.0337293 0.145454 
4228 2 -0.0579389 -0.0187792 -0.0105817 0.0618187 
1130 1 0.0607296 0.0482526 0.00121698 0.077575 
2994 1 -0.0430882 -0.0746441 0.0362934 0.0935176 
3041 1 -0.078501 0.0709996 0.00146959 0.105856 
604 1 0.0498631 0.0392623 -0.0363276 0.073127 
721 1 0.0490113 0.00987648 0.0350054 0.061033 
3164 1 0.0233891 0.0340781 -0.033928 0.0534741 
241 1 -0.034748 0.047549 0.0101449 0.0597599 
2494 1 0.015084 0.0515673 -0.0243715 0.0589973 
3010 1 0.0805541 -0.056031 0.0956058 0.137 
64 1 -0.00268751 -0.0978834 -0.0288595 0.102085 
193 1 -0.0306863 -0.0391776 0.0694781 0.0854619 
44 1 -0.0110719 -0.00795101 0.0142466 0.0197173 
2996 1 0.123318 0.0337254 0.11001 0.168662 
4212 2 0.0457401 -0.00474118 0.0253685 0.0525186 
3279 1 0.057815 -0.0128981 -0.0474707 0.0759105 
257 1 0.0284295 -0.0243184 0.018585 0.0417735 
330 1 0.0555587 0.154479 0.0160493 0.164949 
2981 1 -0.0141203 -0.107877 -0.0166153 0.110059 
103 1 -0.0142006 0.0137424 -0.0518424 0.055481 
3841 2 -0.0206154 -0.0262611 0.000791413 0.0333956 
600 1 -0.0430345 -0.0604569 -0.016128 0.0759415 
338 1 -0.03761 -0.0768947 -0.0176292 0.0873962 
4101 2 0.0362803 -0.0256688 0.104075 0.113167 
949 1 -0.0186764 0.0157903 0.043151 0.0495999 
446 1 -0.0545015 -0.056145 0.131757 0.15324 
3608 2 0.0888852 0.00443682 0.0654019 0.110443 
4217 2 -0.0227943 -0.0289102 -0.0347356 0.0506156 
479 1 0.051037 0.0229729 -0.0271619 0.0622117 
3335 1 0.0306374 -0.0425276 -0.00876919 0.0531427 
1457 1 -0.123684 0.0570859 -0.0461804 0.143837 
3037 1 -0.173707 0.0936965 -0.0636074 0.207362 
4253 2 0.0715927 0.019382 -0.1067 0.129947 
387 1 -0.043984 -0.0901652 0.00657456 0.100536 
3736 2 -0.0172066 -0.0674538 -0.0745321 0.101986 
1991 1 0.017313 0.0457801 -0.0178199 0.0520874 
3394 1 -0.0129689 0.0213278 -0.0578631 0.0630175 
508 1 -0.0595349 -0.0196228 -0.0413914 0.075118 
3537 2 0.0194326 -0.0716946 -0.117835 0.139294 
747 1 -0.00971088 0.0614289 -0.0114641 0.0632395 
497 1 0.0225953 -0.0191301 0.00604529 0.0302168 
958 1 -0.0250079 0.00317786 -0.0123747 0.0280825 
3130 1 -0.0579147 0.0296584 -0.0962175 0.116153 
4163 2 -0.0293849 0.159559 -0.0256586 0.164259 
3643 2 -0.0549243 0.00787316 0.0139166 0.0572043 
133 1 0.00474522 -0.0034234 0.0324947 0.0330173 
4204 2 -0.0403064 -0.0565735 0.00952491 0.0701134 
86 1 0.0165858 -0.0318692 -0.0844033 0.0917314 
759 1 -0.0113538 -0.0732629 0.0193376 0.0766179 
3411 1 0.0737275 0.0140249 0.0486272 0.0894262 
835 1 -0.0105718 0.139262 0.0741176 0.158111 
3057 1 0.00850892 -0.00595702 -0.021507 0.0238838 
3620 2 0.00963876 -0.0565603 0.0327501 0.0660647 
704 1 -0.00304083 -0.0116286 -0.0946357 0.0953959 
3599 2 -0.0376054 0.0382054 0.0112644 0.0547787 
157 1 -0.0520587 0.0920107 0.0381213 0.11238 
54 1 0.000611156 -0.224698 -0.038757 0.228017 
493 1 0.0146974 0.124267 0.00183277 0.125146 
204 1 -0.0939442 0.004531 0.0453838 0.10443 
254 1 0.0488462 0.000476089 0.0490101 0.0691966 
178 1 0.105608 0.0331053 -0.115951 0.160292 
580 1 -0.000704489 -0.0749215 0.12792 0.148248 
67 1 0.00814322 -0.0692805 -0.0621407 0.0934214 
2988 1 0.0546494 0.0345961 -3.62564e-05 0.0646796 
3030 1 -0.0156569 0.00175244 0.13923 0.140118 
4050 2 0.037514 0.0820578 -0.0395385 0.0985093 
3479 2 0.0332524 -0.0246988 -0.0551964 0.0690102 
2934 1 0.031982 0.049135 -0.076766 0.0965925 
3216 1 -0.0591334 -0.00215112 0.00495833 0.0593799 
234 1 0.0590794 -0.0795564 -0.0410953 0.107277 
1036 1 0.0653788 -0.117345 -0.0304047 0.137727 
3369 1 -0.0224844 -0.0346046 0.0235548 0.0475169 
3607 2 -0.0673592 0.0224402 -0.0256308 0.0754835 
3139 1 0.0511089 0.00847579 -0.00986041 0.0527369 
644 1 -0.128872 -0.104192 -0.0419593 0.170952 
1278 1 0.0111761 0.0405319 -0.075688 0.0865818 
4269 2 0.0197816 0.128695 0.0134654 0.130901 
3007 1 0.0139997 -0.052519 0.0491873 0.073305 
4089 2 0.0316134 0.0312305 -0.00540463 0.0447656 
214 1 0.0100753 -0.0356415 0.0726742 0.0815682 
640 1 0.0482103 0.0263221 0.0102356 0.0558735 
199 1 -0.0395671 -0.104199 -0.0864928 0.141081 
245 1 0.0564727 0.00396467 0.131181 0.142876 
2758 1 -0.123893 -0.0600985 -0.0737915 0.156226 
3056 1 -0.0543152 -0.0716118 -0.00360041 0.0899519 
3468 2 -0.0944674 0.115063 0.00856005 0.149121 
563 1 -0.0549941 0.123998 0.0452463 0.142993 
3644 2 0.00401111 0.0342653 -0.050092 0.0608227 
1149 1 0.016898 -0.0290057 -0.0025647 0.0336667 
2684 1 -0.162526 0.00739137 0.00858726 0.16292 
249 1 -0.0732222 0.0763181 0.0310009 0.110213 
3096 1 0.0737651 0.113456 -0.0688131 0.151818 
240 1 0.0309856 -0.0250023 0.0897446 0.0981801 
181 1 -0.050469 -0.0599349 0.154612 0.173333 
46 1 0.0269885 0.00708041 -0.0237803 0.0366608 
3211 1 0.0211878 0.00350995 -0.0342701 0.0404436 
354 1 0.0163115 0.0088128 0.0560552 0.0590416 
2939 1 0.0104975 0.101816 -0.0106335 0.102906 
3512 2 0.032962 0.015494 0.0319195 0.0484295 
3603 2 -0.114589 0.083784 -0.0515384 0.151018 
3701 2 0.0221975 0.0110224 0.0729096 0.0770067 
3513 2 -0.0108898 -0.0180583 0.0432478 0.0481151 
312 1 -0.0851787 -0.101383 0.00285657 0.132446 
587 1 -0.0102646 0.0178964 0.0050053 0.0212296 
134 1 0.0199356 0.0707648 0.0264219 0.078123 
135 1 -0.0931827 -0.0309877 -0.0625118 0.116409 
1179 1 0.0642588 -0.00149743 0.0620671 0.0893519 
3003 1 -0.0116877 0.0307532 0.00443045 0.0331962 
191 1 0.00564114 -0.0273813 0.0755296 0.0805374 
685 1 -0.0356684 -0.0547084 -0.0741925 0.0988421 
602 1 -0.174493 -0.0174955 0.0512081 0.182692 
195 1 -0.0758402 0.0407912 -0.0484743 0.0988201 
3092 1 -0.0368495 -0.0638529 -0.00412246 0.0738382 
4195 2 -0.0620102 0.0379702 -0.0462402 0.0861694 
2995 1 -0.16729 -0.0257085 -0.0503313 0.176578 
540 1 -0.116013 0.0264205 0.0549012 0.131039 
674 1 0.0171658 -0.00891337 -0.123507 0.125013 
920 1 -0.0691235 0.0939534 -0.0260972 0.119526 
902 1 -0.00545499 0.069649 0.0920463 0.115556 
2004 1 -0.0844483 0.0193782 -0.0750918 0.114655 
427 1 -0.0804807 -0.0198747 -0.0555247 0.0997754 
4173 2 0.0367453 0.0977941 -0.0798478 0.13149 
2950 1 -0.168246 -0.000729848 0.0248249 0.17007 
6 1 -0.039248 0.106745 -0.00745419 0.113975 
182 1 0.0296943 -0.0220651 -0.0887568 0.0961581 
690 1 -0.00526067 0.075405 -0.0352499 0.0834035 
154 1 0.0860531 -0.0311117 0.0352325 0.098053 
710 1 0.00378091 -0.0894787 -0.0525128 0.103819 
3115 1 -0.0826458 0.15593 -0.00146798 0.176484 
742 1 0.0109371 -0.0593698 -0.0860731 0.105133 
2926 1 -0.191908 -0.02377 0.106478 0.220752 
80 1 -0.029314 0.0175127 0.0198962 0.0395204 
2977 1 0.0365062 0.0581994 -0.150886 0.16579 
95 1 -0.0852534 -0.00282009 0.0676229 0.108853 
3408 1 -0.00798887 -0.0948683 0.0759264 0.121773 
3518 2 -0.125413 0.00709089 0.00579789 0.125748 
205 1 -0.0553351 0.0321502 0.0899327 0.110379 
694 1 0.0170638 -0.0245243 0.0241839 0.0384379 
861 1 0.0337665 -0.050295 -0.0709479 0.0932919 
3549 2 0.0185979 -0.137659 0.0503022 0.147736 
4014 2 -0.0386166 -0.0697498 0.0309832 0.085535 
3401 1 -0.0301399 0.0985329 -0.0564302 0.11748 
1077 1 0.0385398 -0.034147 0.0599544 0.0790307 
3234 1 -0.0883171 -0.0644863 0.0438115 0.117804 
3393 1 -0.0397789 -0.0174428 0.0045457 0.0436723 
3341 1 -0.046155 0.0329511 -0.101046 0.115872 
512 1 0.0712921 0.0369008 0.121106 0.145296 
300 1 -0.0404887 -0.0208568 0.0118067 0.0470504 
393 1 -0.0385737 -0.0649851 -0.0673547 0.101231 
2740 1 0.0371215 0.0167585 -0.0110319 0.0421966 
3197 1 -0.0614153 0.0872322 -0.0514881 0.118458 
4006 2 0.0300809 0.0583838 -0.0379431 0.0758499 
286 1 -0.036433 -0.063227 -0.00351516 0.0730573 
886 1 0.000455445 -0.0807188 0.0286236 0.0856449 
277 1 -0.0375703 0.0296579 0.0496254 0.0689478 
364 1 -0.0142446 0.0709495 0.0304151 0.0784973 
1367 1 -0.0355874 -0.101417 0.0594608 0.122831 
411 1 0.00982237 0.0507059 0.0281308 0.0588125 
3658 2 0.0696902 -0.103732 0.111047 0.167178 
334 1 -0.0207285 -0.0171735 -0.0342586 0.043569 
356 1 0.0781854 -0.0470679 0.00710876 0.0915362 
4154 2 0.0118445 -0.0594522 0.024967 0.0655607 
357 1 0.0116793 -0.0308058 0.040797 0.0524385 
265 1 0.0306069 0.0297956 0.0200911 0.0472039 
3389 1 0.0138446 -0.0730581 -0.0229631 0.0778233 
362 1 -0.00378708 -0.0139988 0.0668287 0.0683841 
478 1 0.0141228 -0.0140868 0.0481084 0.0520799 
4159 2 0.0193032 -0.0460722 -0.125893 0.135441 
2696 1 -0.0140648 0.0389816 0.0325843 0.0527173 
780 1 0.0637228 0.00174048 -0.0396805 0.0750878 
966 1 0.031181 0.0625221 0.0790503 0.1055 
3612 2 0.052705 -0.0637684 0.0613973 0.103024 
433 1 -0.0359731 0.162182 -0.118415 0.204007 
924 1 0.0719896 -0.00066298 0.0955303 0.11962 
2710 1 0.00386848 0.0191962 0.0352074 0.0402867 
3313 1 -0.00776476 0.0326941 -0.0195665 0.038885 
3482 2 -0.0359618 0.0670055 -0.0864301 0.115122 
3290 1 0.00513078 -0.0301882 0.057911 0.0655083 
3192 1 0.0515477 -0.0746678 0.0424425 0.100169 
626 1 0.0848931 -0.00823975 0.0616557 0.105243 
3333 1 -0.0416007 -0.0074636 -0.102093 0.110495 
3303 1 -0.0297096 -0.0982434 0.102768 0.145244 
3526 2 -0.0435485 0.0555003 -0.0435651 0.0829136 
3249 1 0.00374128 0.130656 -0.0240311 0.1329 
92 1 0.0435401 0.0228598 0.0712397 0.0865645 
3379 1 0.078644 0.0742571 0.0113146 0.108752 
1449 1 -0.0564397 -0.00295071 0.0465939 0.0732471 
903 1 0.0266509 0.0758103 0.00401615 0.0804587 
160 1 0.0221909 0.0450788 -0.0398614 0.0641363 
553 1 0.00446708 -0.0766768 -0.00131502 0.0768181 
3808 2 -0.0428098 0.0112743 -0.0216877 0.0492965 
462 1 0.00874219 -0.144477 0.0326938 0.148388 
2966 1 0.0699803 -0.0687466 0.0891399 0.132549 
3022 1 -0.0482307 0.0046127 -0.075397 0.0896225 
750 1 0.0123922 -0.0848669 -0.00878076 0.0862152 
3162 1 -0.00705905 -0.0225514 -0.103927 0.10658 
449 1 -0.0191303 -0.0514081 -0.0594976 0.0809242 
3631 2 0.00542948 -0.189462 -0.0546132 0.197251 
287 1 -0.0341454 0.00949636 -0.00584243 0.0359197 
3647 2 -0.0401678 0.0310098 0.0146167 0.0528082 
2890 1 -0.00562301 0.0143741 0.00317106 0.0157572 
1285 1 -0.0303201 0.123851 0.0401184 0.133671 
943 1 0.0215124 -0.0606877 0.01421 0.0659371 
3305 1 0.0410372 0.127212 0.00105287 0.133671 
3209 1 0.00239277 0.0611927 -0.137501 0.150522 
3409 1 0.0294555 -0.0597378 -0.0108992 0.0674909 
4318 2 -0.0683308 0.0382157 0.0385572 0.0872708 
763 1 0.00823217 0.0141264 0.0457068 0.0485432 
3883 2 0.048476 -0.046395 -0.0447581 0.080658 
3531 2 -0.0120919 0.0147211 -0.000406026 0.0190549 
3227 1 0.0325012 -0.136267 -0.0279142 0.142843 
373 1 -0.0124446 -0.0226132 0.0367194 0.0448836 
4297 2 -0.0901849 -0.00153858 0.124058 0.153382 
3404 1 0.0784291 -0.0290603 0.0178213 0.0855174 
3221 1 0.0386648 -0.0105008 0.0169954 0.043521 
398 1 0.0317927 0.0441393 0.0760827 0.0935288 
2732 1 0.10254 0.0177692 -0.0210559 0.106177 
4123 2 -0.0160297 -0.0572079 0.041363 0.072392 
1145 1 -0.0124985 -0.0127079 0.0121365 0.0215638 
836 1 0.127472 -0.027244 -0.0713406 0.148596 
309 1 0.0207729 0.019339 0.0438595 0.0522414 
394 1 0.0153163 0.0302944 0.108529 0.113714 
412 1 0.0316214 0.0662504 0.00435432 0.073539 
1212 1 -0.0403376 0.0286422 -0.00289405 0.0495568 
3573 2 -0.0401512 0.0608274 0.0948187 0.119594 
3360 1 -0.0259345 -0.00526785 -0.0716289 0.0763613 
3319 1 0.0158219 -0.0143451 0.0501856 0.0545409 
3588 2 0.0135897 0.0801502 0.049493 0.0951751 
2365 1 0.0698101 -0.0333749 -0.0520961 0.093281 
306 1 -0.107834 0.076508 -0.0700708 0.149638 
3093 1 0.0719347 0.061859 0.0402549 0.103061 
2745 1 0.0353967 -0.0457678 -0.0170543 0.0603197 
355 1 -0.138523 -0.00675289 -0.0116525 0.139176 
3097 1 0.0767879 0.0439583 -0.0236619 0.0915892 
228 1 -0.00284722 0.0254197 -0.0229248 0.0343484 
3324 1 0.0485137 0.120291 -0.0441417 0.137011 
951 1 -0.0992357 0.040139 0.00964376 0.10748 
2737 1 -0.115209 0.0952946 -0.0105053 0.149881 
2959 1 0.0876733 0.105472 0.0190576 0.138471 
4284 2 -0.00518032 -0.0194547 0.0500978 0.0539917 
4225 2 -0.0089143 0.0198842 0.0396914 0.0452797 
3483 2 -0.0219771 0.0364046 -0.0389902 0.0576933 
3337 1 -0.0497664 -0.0314046 0.00809599 0.0594011 
4116 2 -0.0769543 -0.0594959 0.0877103 0.130976 
716 1 0.0268164 0.0338779 -0.122466 0.129864 
389 1 0.0312849 -0.119434 -0.024373 0.125846 
601 1 -0.0306736 0.0420442 0.046882 0.0700464 
3094 1 -0.00895457 -0.0239954 0.0185586 0.0316289 
3617 2 -0.111668 -0.0344225 0.0633527 0.132921 
206 1 -0.0352714 -0.043658 0.0548359 0.078467 
71 1 -0.0122091 0.0515415 0.0121737 0.0543487 
3561 2 0.00342598 0.059345 -0.123211 0.136801 
3676 2 0.0983909 -0.0339238 0.059976 0.12012 
353 1 -0.0252227 -0.0570777 0.0179586 0.0649351 
962 1 0.0224213 -0.0287214 -0.0666532 0.0759624 
1324 1 0.0155846 0.0255552 0.000826725 0.0299438 
4185 2 -0.0798194 -0.0538583 -0.0105507 0.0968668 
388 1 0.100339 0.0943537 0.017644 0.138859 
1313 1 0.0721494 0.0521057 0.0292509 0.0936811 
444 1 -0.0104093 0.119635 -0.105556 0.159884 
3668 2 0.0912915 0.0686283 -0.046792 0.123424 
838 1 -0.135637 -0.00743965 0.0150806 0.136675 
460 1 -0.17868 -0.0496975 0.00781345 0.185627 
499 1 -0.0663154 0.0469024 -0.01587 0.0827612 
3548 2 -0.170273 0.0200036 -0.0139537 0.172011 
291 1 0.0617231 0.038362 -0.020141 0.0754124 
482 1 -0.0894748 0.0967587 -0.0674753 0.148057 
1314 1 -0.0478477 0.0245713 0.029703 0.0614445 
3672 2 -0.0204497 0.112083 0.0633743 0.130373 
375 1 0.0507764 0.0321286 -0.0287378 0.0666059 
94 1 -0.055284 0.0154887 -0.0628471 0.0851233 
3281 1 -0.107252 0.0185077 -0.0092777 0.109232 
37 1 0.0265188 0.0200744 0.105083 0.110221 
3321 1 0.0660812 -0.00078297 0.0536298 0.0851087 
4264 2 0.0948219 -0.0579738 0.0118325 0.111768 
3664 2 -0.0673687 -0.0179431 0.00553879 0.0699369 
3380 1 -0.00703638 0.115734 0.0658004 0.133317 
901 1 -0.0751671 0.0136639 0.0477133 0.0900741 
4309 2 -0.0495514 -0.0263104 0.0145681 0.0579639 
392 1 0.0237961 0.0280756 0.0507397 0.0626819 
436 1 0.16107 0.140459 -0.0722805 0.225602 
792 1 0.0709581 -0.0506493 0.0384967 0.0953017 
3293 1 0.0775727 -0.00958769 -0.0966292 0.124285 
1354 1 -0.12525 0.0273657 0.116662 0.173339 
318 1 -0.076009 -0.115302 0.0502467 0.146958 
3350 1 -0.07421 -0.0362306 -0.0266805 0.0867849 
3314 1 0.0514872 -0.0135715 -0.068967 0.0871295 
2861 1 -0.046942 0.0570869 0.0653118 0.0986311 
3180 1 -0.0896234 -0.0813847 0.0528681 0.132102 
3150 1 0.0582158 0.0207926 0.0696038 0.093092 
3320 1 -0.062369 -0.155681 0.0387345 0.172125 
3095 1 -0.0345957 -0.0199357 -0.0136921 0.042211 
2479 1 0.0313092 -0.058127 -0.0293015 0.0722329 
614 1 0.0952493 -0.0211905 0.00460484 0.0976866 
771 1 -0.0284167 0.0691697 -0.0158102 0.0764324 
3392 1 -0.0532173 0.0232682 -0.00769358 0.0585891 
3257 1 0.00497849 -0.0327008 -0.0255604 0.0418027 
2961 1 0.00756531 -0.034645 -0.027986 0.0451743 
483 1 -0.0158495 0.0774782 0.122534 0.145837 
4271 2 -0.0102334 0.0478156 0.0526474 0.0718526 
1172 1 -0.0358344 -0.0587859 0.0465374 0.0831 
652 1 -0.0734293 0.0385146 -0.0082329 0.0833248 
3568 2 -0.0900405 0.0347198 0.0146514 0.0976085 
3433 1 0.0578359 0.00558925 -0.0604825 0.0838711 
3419 1 -0.0753061 0.0467639 0.0488926 0.101234 
248 1 0.0510523 0.0213731 0.0278858 0.0619739 
3560 2 -0.0802635 -0.0634267 0.0504223 0.114051 
3535 2 -0.0626556 -0.00074794 0.0333762 0.0709947 
4028 2 0.0470332 -0.00675874 0.0865993 0.0987787 
3082 1 -0.0342745 -0.0123523 0.022158 0.0426415 
3487 2 -0.00499422 0.0919554 -0.00706027 0.0923612 
328 1 0.0754866 0.0011409 0.0138838 0.0767613 
325 1 0.0475726 -0.0262785 0.0372274 0.0658756 
292 1 -0.0717947 0.0146597 0.033276 0.0804778 
3444 1 -0.114325 -0.00501768 0.0140873 0.115299 
908 1 0.0239787 -0.130051 -0.022847 0.134202 
3504 2 0.186931 -0.0783813 0.00416569 0.202741 
423 1 0.0965092 0.0814802 0.0354302 0.131181 
502 1 0.0344946 -0.0099685 0.00651097 0.0364917 
3435 1 -0.0043474 -0.14371 -0.102897 0.176803 
430 1 -0.0771574 -0.0704927 0.0911346 0.138665 
439 1 0.0255992 0.0539087 -0.0411465 0.0724879 
3331 1 0.00103776 -0.00208751 0.0224587 0.0225793 
4182 2 0.0396477 0.0415118 0.0147466 0.0592675 
874 1 0.0132974 -0.00216889 0.0356403 0.0381019 
980 1 0.0579332 -0.0164131 0.00133403 0.0602281 
810 1 -0.00675641 0.00521685 0.0701013 0.0706191 
3312 1 -0.0318968 -0.0276094 0.0692721 0.0811068 
1442 1 0.0341511 -0.0370765 -0.0417323 0.0654412 
225 1 -0.122757 -0.0586287 0.0335087 0.140105 
4280 2 -0.0538112 0.0834378 0.0121529 0.100026 
416 1 0.0546522 -0.00388916 0.0768615 0.0943911 
365 1 0.00966268 -0.0607052 -0.0180969 0.064078 
3799 2 -0.0190558 -0.0372265 -0.0347489 0.0543729 
2819 1 -0.0224183 -0.00688307 0.104939 0.107528 
382 1 0.0781967 0.0375746 -0.102312 0.134143 
404 1 0.0558408 0.0125199 -0.112049 0.125817 
2776 1 0.0739384 0.0756206 0.0882032 0.137714 
2973 1 -0.00932671 -0.0385387 0.0284061 0.0487763 
957 1 -0.0385472 0.0188393 0.00869296 0.0437764 
795 1 0.0234445 -0.129258 0.17486 0.218708 
490 1 -0.0618286 -0.0332284 0.0140639 0.071587 
3266 1 -0.111441 0.0477334 0.0461904 0.129735 
2884 1 -0.104167 0.00424136 -0.0253706 0.107296 
4298 2 -0.186228 0.0996743 -0.0221957 0.212387 
4285 2 0.0573226 0.0213528 0.0912429 0.10985 
496 1 0.0463282 0.0178078 0.0296989 0.0578399 
2993 1 -0.000177613 0.0221758 0.0201311 0.0299509 
4256 2 0.04589 -0.0669267 0.0228459 0.0843031 
471 1 -0.00128619 0.0620484 0.0582006 0.0850821 
517 1 -0.00598371 0.00743919 -3.30133e-05 0.00954711 
279 1 0.0390678 0.0358097 0.0210456 0.0570223 
187 1 0.0417113 0.0500654 -0.0374444 0.0751562 
917 1 -0.0522352 -0.0322009 -0.0492051 0.0786547 
3322 1 -0.00480866 0.0122731 0.0987865 0.0996621 
3863 2 -0.178016 0.0554654 -0.00485182 0.18652 
274 1 -0.06653 -0.0146454 -0.00245479 0.0681671 
1091 1 0.00276618 0.0514718 0.139146 0.148387 
3396 1 0.0796276 0.00582628 0.0413113 0.0898951 
349 1 0.0908578 -0.0104821 0.0332534 0.097318 
2545 1 -0.0579015 0.00282282 -0.0763768 0.0958852 
3327 1 -0.111479 -0.0225708 -0.0164006 0.114917 
3674 2 -0.0493379 0.0643998 0.0874066 0.119254 
1418 1 0.179312 0.0224826 0.0435409 0.185888 
443 1 0.0630234 0.0963686 0.0626653 0.131095 
855 1 0.0158584 0.0499475 -0.128143 0.138445 
3420 1 0.0747648 -0.0600383 -0.0911554 0.132301 
2869 1 -0.0613243 -0.179204 0.0331781 0.19229 
4307 2 0.0300857 -0.192696 -0.0488896 0.201065 
3476 2 0.00665172 -0.127261 -0.0592401 0.140531 
177 1 0.00733651 0.0110699 0.01698 0.0215566 
363 1 -0.0223137 -0.118788 -0.0543023 0.132504 
1450 1 -0.028089 0.0284911 -0.00607397 0.0404676 
3559 2 -0.0140678 0.0348461 -0.0703822 0.079786 
347 1 -0.0514275 -0.0815008 -0.0345714 0.102383 
4237 2 -0.0497688 -0.0280344 0.0112782 0.0582242 
319 1 -0.0629053 0.0550221 0.0413797 0.0932566 
830 1 -0.0463364 0.0111207 -0.0085119 0.0484064 
295 1 -0.0632844 -0.0146801 -0.0451755 0.079128 
937 1 -0.0321272 -0.00327506 0.0393276 0.0508876 
268 1 0.090632 -2.57589e-05 0.0631172 0.110444 
854 1 -0.00591905 0.0735747 -0.0226671 0.0772144 
442 1 0.00940895 0.0328731 -0.0238414 0.0416844 
875 1 0.0420114 -0.0722362 0.0394113 0.092392 
501 1 0.0423721 -0.0297316 0.00032426 0.0517635 
1289 1 0.0407625 0.0202042 0.0172021 0.0486385 
3291 1 0.0825825 -0.0188504 0.011061 0.0854257 
314 1 0.0265956 0.0315985 -0.0374372 0.0557434 
474 1 -0.039222 0.0207629 -0.00541903 0.0447082 
3070 1 0.053823 0.0344967 -0.015568 0.0657975 
964 1 0.0859841 0.079067 0.0300464 0.120614 
793 1 0.0563878 0.0375857 0.0938218 0.115736 
3397 1 0.0153811 0.0265162 -0.0331876 0.0451786 
899 1 -0.0736776 0.105758 0.0129121 0.129537 
1337 1 -0.0215623 0.0664563 -0.0161006 0.0716979 
3278 1 0.0123918 0.00277428 -0.119891 0.120561 
3544 2 0.0565936 0.0224433 -0.0474666 0.0771985 
1430 1 -0.00767445 0.0211646 -0.0398215 0.0457448 
3200 1 -0.0105766 -0.0768021 0.0818995 0.112774 
757 1 -0.103302 0.0988819 0.046555 0.150387 
822 1 -0.00902283 -0.0146076 0.0597714 0.0621885 
3678 2 -0.00863295 0.012208 0.0587081 0.0605822 
699 1 -0.0235724 0.0264704 0.008959 0.0365596 
329 1 0.0645584 0.108475 -0.0719232 0.145285 
3383 1 -0.0935028 0.0503609 -0.00484383 0.106313 
85 1 0.0493968 -0.107117 0.120316 0.168493 
3240 1 -0.0513255 -0.0537379 0.0262258 0.0788027 
113 1 0.00677414 0.0485105 -0.0780179 0.0921192 
504 1 -0.0646706 -0.219676 0.0426731 0.23294 
581 1 0.0407059 -0.0370816 0.132493 0.143479 
2795 1 -0.0643023 -0.0548117 0.0592051 0.103172 
3541 2 0.0074574 0.0287018 -0.00982358 0.0312395 
786 1 -0.032731 -0.0408391 0.120495 0.13137 
800 1 -0.0347042 0.00819716 -0.014324 0.0384285 
367 1 -0.0148459 0.0165025 0.0139056 0.0261935 
2687 1 0.0591091 -0.150111 -0.0135355 0.161896 
3545 2 0.0145607 -0.0103198 -0.0146851 0.023112 
491 1 0.0128575 0.0690101 0.0140122 0.0715824 
781 1 -0.0395559 -0.0550543 0.138127 0.153866 
3378 1 -0.0100811 0.126147 0.045857 0.134602 
4098 2 -0.0240335 0.0805179 -0.0350864 0.0910593 
3434 1 -0.0206251 0.104613 -0.0758477 0.130851 
2814 1 0.0270183 0.132477 0.0469632 0.143128 
1723 1 -0.0395637 0.0153303 0.0413919 0.0592756 
3264 1 -0.0211803 0.00500621 0.104651 0.10689 
440 1 0.0365584 -0.0855141 0.091298 0.130325 
431 1 0.0725314 0.0146832 -0.000663549 0.0740057 
107 1 -0.0307084 0.0577231 0.0374919 0.0753697 
1254 1 -0.0360184 0.0117206 -0.119929 0.125768 
968 1 0.00998908 0.0547462 0.0249952 0.0610056 
801 1 -0.0138244 -0.0632803 -0.047553 0.0803542 
2656 1 0.0527754 0.0415802 -0.0976017 0.118492 
421 1 0.0405154 0.000185437 -0.0941708 0.102517 
4152 2 0.0245962 0.178195 -0.0833318 0.198249 
461 1 0.0280239 0.133613 -0.131202 0.189345 
3339 1 -0.0142301 0.080068 0.0907462 0.121853 
840 1 -0.0672714 0.0897571 -0.0312025 0.116428 
3436 1 -0.0865625 -0.0188816 0.0853264 0.123005 
3371 1 -0.103455 0.0698582 0.0264738 0.127608 
486 1 0.0273581 -0.0560382 0.0055569 0.062607 
308 1 -0.0215267 0.00542376 -0.0446183 0.0498359 
307 1 -0.0343346 0.0173558 0.065264 0.0757593 
208 1 -0.0290044 0.0421125 0.0196198 0.0547691 
647 1 0.00121763 0.0633165 0.0622282 0.0887851 
402 1 0.00991974 0.0389046 0.169282 0.173978 
4143 2 -0.0440533 -0.0050868 0.0969378 0.1066 
2873 1 0.0448259 0.0380393 0.0315069 0.0667011 