ITEM: TIMESTEP
240
ITEM: NUMBER OF ATOMS
4320
ITEM: BOX BOUNDS pp pp pp
0.0000000000000000e+00 1.9309999999999999e+01
0.0000000000000000e+00 1.9309999999999999e+01
0.0000000000000000e+00 9.6549999999999994e+00
ITEM: ATOMS id type c_displacement[1] c_displacement[2] c_displacement[3] c_displacement[4] 
3196 1 0.112059 -0.0301822 0.13393 0.177215 
381 1 0.108499 0.0961407 0.00406437 0.145022 
327 1 0.0411568 -0.0140786 -0.145656 0.152013 
484 1 -0.0587911 0.105859 -0.0251048 0.123664 
728 1 0.0422433 0.101608 -0.144459 0.181596 
817 1 0.0126632 -0.0477633 0.108558 0.119275 
215 1 -0.10149 0.0418319 0.00745942 0.110026 
3679 2 0.194156 -0.047066 0.165795 0.259615 
3877 2 0.0346094 0.0745885 -0.034636 0.0892239 
2945 1 -0.0951469 0.0762343 -0.0469213 0.130638 
3230 1 0.0914235 0.0484137 -0.00632458 0.103644 
3651 2 -0.096676 0.0846332 0.00445849 0.128565 
66 1 -0.107986 -0.0272212 -0.113362 0.158912 
400 1 -0.124899 0.107298 -0.0147341 0.165317 
677 1 0.00817238 0.0261391 -0.0215341 0.034839 
623 1 0.0768363 0.101382 -0.0106597 0.127655 
87 1 -0.0489489 0.129328 0.0117017 0.138776 
3199 1 -0.00271609 0.0527594 -0.16808 0.176187 
727 1 -0.00558948 -0.0701971 -0.0479817 0.0852122 
688 1 0.0265086 0.119637 0.0856904 0.149528 
58 1 -0.0642888 -0.0156312 -0.0352104 0.0749477 
3514 2 -0.0421841 0.0542201 -0.137805 0.153979 
18 1 0.0316126 0.0840294 0.100283 0.1346 
3618 2 -0.221755 0.0538357 0.0929409 0.246398 
190 1 -0.0905163 0.0375139 -0.154467 0.182923 
298 1 -0.0776827 0.0284987 -0.162303 0.182178 
389 1 0.163148 -0.343297 -0.0032913 0.380107 
110 1 -0.0019771 -0.117275 -0.11386 0.163467 
180 1 0.021459 0.0194407 0.187276 0.189501 
106 1 -0.0122105 -0.0505032 0.00748092 0.0524941 
217 1 0.0391445 0.0569726 -0.0896461 0.113202 
775 1 0.0628428 -0.046183 -0.00550246 0.0781816 
3627 2 0.233515 0.0781109 -0.0908428 0.262456 
608 1 0.0404007 -0.010418 0.0112712 0.0432179 
255 1 0.0708542 -0.0379946 -0.116311 0.141394 
3118 1 -0.00519896 0.0422529 -0.217075 0.22121 
562 1 0.0762947 -0.0298359 -0.018122 0.0839015 
70 1 0.0549001 0.0881182 0.00559633 0.103972 
121 1 0.119441 0.0488779 -0.178108 0.219949 
1118 1 -0.0731801 -0.113255 -0.0180896 0.136048 
210 1 0.130513 -0.0305539 0.0993873 0.166868 
232 1 -0.00776568 0.0620007 -0.00470108 0.0626618 
4214 2 0.179713 -0.0721525 0.0703912 0.206053 
4170 2 0.172574 0.0086331 0.12219 0.211629 
65 1 0.0464444 0.0226957 0.015457 0.0539546 
226 1 0.201797 0.0340455 0.112211 0.233394 
532 1 0.0553454 0.0102143 0.189466 0.197648 
3578 2 0.0530233 0.0745222 0.181532 0.203271 
473 1 0.0651928 -0.0703063 -0.059307 0.11274 
246 1 0.0392667 -0.0373085 0.081627 0.0979631 
626 1 0.0766149 0.0316796 -0.0252966 0.0866796 
155 1 -0.258064 0.0148877 -0.0703787 0.267902 
3393 1 -0.047769 -0.0774834 0.0408393 0.0997668 
4071 2 0.157252 0.25872 0.380345 0.486134 
2838 1 0.106243 0.0880394 -0.131472 0.190587 
536 1 0.050741 0.0845977 0.0761005 0.12459 
894 1 -0.0341367 0.00125541 0.0375108 0.0507341 
289 1 -0.0412635 -0.00296656 0.0432661 0.0598618 
351 1 -0.0760294 0.0939412 0.134895 0.181114 
197 1 0.0424993 0.0354004 -0.18321 0.191377 
3135 1 -0.0454709 0.111713 0.0149846 0.12154 
303 1 -0.069025 0.0968704 0.0192059 0.120487 
1415 1 -0.0590047 -0.0131557 -0.0117243 0.0615799 
527 1 -0.129518 -0.0445527 0.182963 0.22855 
3002 1 -0.116767 0.15546 0.113755 0.225261 
3189 1 -0.142503 0.0191873 -0.0406682 0.14943 
712 1 -0.117654 -0.0935545 0.0386676 0.15521 
718 1 -0.220644 -0.0531544 -0.0135779 0.227362 
3469 2 -0.0908756 0.0757126 0.0266326 0.121244 
4177 2 0.056873 -0.282412 0.131709 0.316762 
93 1 -0.0879561 0.0307143 0.0722886 0.117921 
569 1 0.0637138 0.000549222 0.03368 0.07207 
639 1 -0.137106 0.164061 0.00505725 0.213868 
21 1 -0.0252582 -0.00415282 0.105698 0.108754 
96 1 -0.0265667 -0.0645595 0.000746633 0.069816 
3353 1 -0.14046 -0.256853 0.0159122 0.293182 
823 1 0.117505 0.0636012 -0.0562084 0.144955 
2596 1 0.0348688 -0.191275 0.0945876 0.216215 
50 1 -0.0692038 -0.228306 0.0641571 0.247041 
2495 1 0.0170129 0.0735355 0.0679882 0.101584 
28 1 0.0648479 0.106354 -0.104367 0.162508 
3055 1 0.119196 -0.0712007 -0.00827404 0.139089 
12 1 0.24616 0.0329429 -0.143371 0.286767 
3346 1 0.0244428 0.0647093 0.00589204 0.0694223 
738 1 0.162224 -0.0194907 -0.0357139 0.167248 
2453 1 0.161542 0.0874023 0.0114348 0.184026 
3167 1 0.112604 -0.179376 -0.0244764 0.213201 
339 1 0.154229 0.106833 0.0859967 0.206386 
988 1 0.0716554 0.0363589 -0.110624 0.136727 
3808 2 0.132624 -0.00924692 0.102663 0.167971 
78 1 -0.0107028 0.08047 -0.05395 0.0974709 
390 1 0.239214 -0.0964971 0.134794 0.291041 
203 1 0.112549 0.0988277 -0.0299702 0.15275 
3582 2 0.101718 0.092818 -0.066002 0.152703 
3632 2 0.0891178 0.0485401 -0.0713253 0.124038 
231 1 0.183124 -0.0851475 0.13232 0.24144 
323 1 0.0636217 -0.0629524 0.0144061 0.0906546 
3244 1 0.0878147 0.0741795 -0.0561868 0.127949 
118 1 0.103435 0.0268835 0.0313969 0.111388 
2735 1 -0.116162 -0.0195364 -0.013892 0.11861 
2768 1 -0.0911013 -0.00247094 0.0958367 0.132251 
2960 1 -0.117196 0.0668045 -0.027519 0.137677 
29 1 -0.0154525 0.0834429 0.0414272 0.0944336 
753 1 -0.00942572 -0.203432 0.106583 0.229855 
3467 2 -0.163593 -0.0742642 -0.111577 0.211488 
4289 2 -0.0246256 -0.0153748 0.118344 0.121853 
3251 1 -0.116387 0.0594442 0.0993602 0.16417 
3478 2 0.165339 0.0102875 0.074453 0.181621 
725 1 -0.112229 0.0193495 0.0848103 0.141995 
1133 1 0.120759 0.0483701 -0.0118051 0.13062 
3611 2 0.162263 0.0418447 -0.13842 0.217348 
4187 2 -0.1335 -0.179505 -0.103825 0.246625 
437 1 -0.0134706 -0.0572992 -0.104045 0.119541 
53 1 0.0755467 0.0815153 0.0301393 0.115154 
593 1 -0.153045 -0.0238454 0.141207 0.209596 
609 1 0.0791647 0.00214418 0.0217187 0.0821179 
3040 1 -0.0290177 0.0473267 0.0541629 0.0775595 
737 1 0.0600895 0.0541794 0.00053874 0.0809101 
167 1 -0.0524861 0.0738565 0.104152 0.138047 
553 1 -0.0889435 -0.0244758 0.12335 0.15403 
610 1 0.00545313 0.00767255 0.0654344 0.066108 
247 1 0.00797147 0.12007 0.167212 0.20601 
89 1 -0.101184 -0.0570361 0.0877027 0.145544 
3149 1 -0.0189788 -0.0234865 0.162882 0.165658 
550 1 -0.0143999 -0.0707956 0.138613 0.156311 
147 1 0.0398544 -0.00670152 0.169472 0.174224 
3554 2 -0.0798717 -0.0381912 0.106149 0.138224 
3786 2 -0.0931296 -0.00998248 0.0549782 0.108607 
5 1 0.120903 -0.0254134 0.0716143 0.142801 
2591 1 -0.0355714 0.153861 0.0325135 0.161232 
3232 1 0.062775 -0.0679232 -0.17118 0.194568 
1215 1 0.120382 0.0731995 -0.0704759 0.157533 
859 1 0.190255 0.0627194 0.0130251 0.20075 
3152 1 -0.0345647 -0.0699108 0.11159 0.136141 
2936 1 0.057364 0.228558 -0.018804 0.236395 
59 1 0.101894 -0.0130797 -0.00802783 0.103044 
2461 1 0.00225188 -0.0591655 0.028856 0.0658658 
23 1 0.13354 -0.0792303 0.0143248 0.155935 
3743 2 0.0140014 0.0337482 0.043773 0.0570181 
3023 1 0.014301 0.177431 0.0795169 0.19496 
151 1 0.115242 -0.0737016 0.0814664 0.159215 
43 1 0.086857 -0.0270371 0.0394572 0.0991565 
3730 2 0.0576562 0.0881054 0.14958 0.182923 
424 1 0.107466 0.0506977 -0.0313153 0.122882 
3460 2 0.101294 -0.0619762 -0.10231 0.156744 
3006 1 0.1197 -0.0369541 0.147629 0.193618 
1454 1 0.00176697 0.0375049 -0.101866 0.108565 
594 1 0.140954 -0.00097229 -0.0284667 0.143803 
221 1 -0.0175421 0.0853351 0.129459 0.156043 
3623 2 0.255824 0.177649 0.0280721 0.312719 
2500 1 0.0100196 0.0278309 -0.103815 0.107947 
3188 1 0.0808319 0.181205 0.0258481 0.200093 
3491 2 0.0271798 0.18695 -0.108045 0.217629 
717 1 -0.0980407 0.039407 0.0855092 0.135929 
2931 1 -0.170819 -0.123611 -0.0668292 0.22119 
691 1 -0.156864 -0.00558796 -0.0403282 0.162062 
825 1 0.120837 -0.0943773 0.138195 0.206413 
174 1 -0.031315 -0.142091 0.00931307 0.145799 
4228 2 -0.0973894 0.0140167 -0.00165319 0.0984068 
3634 2 -0.0172648 0.145145 0.0862922 0.16974 
2994 1 0.086889 0.0902639 0.0846113 0.151183 
529 1 -0.0246449 -0.0293584 -0.0474648 0.0610098 
1480 1 -0.122818 0.0383857 0.126745 0.180616 
2968 1 -0.0822178 0.0733215 0.123823 0.165735 
3464 2 -0.160758 0.0899625 -0.021106 0.185424 
98 1 -0.0243481 -0.0242214 0.0940573 0.100131 
216 1 0.195446 0.0396106 0.0510989 0.205862 
40 1 0.00631993 -0.00744205 0.153151 0.153462 
1130 1 -0.0877021 -0.0603059 0.135338 0.172177 
3916 2 -0.163571 -0.00734246 0.217404 0.272165 
3041 1 -0.0366303 -0.0414221 0.166035 0.175001 
604 1 0.129568 -0.10708 0.0340476 0.171503 
721 1 0.0543032 0.0319086 0.0977958 0.116323 
3164 1 0.136962 0.0306291 0.0522645 0.149761 
187 1 0.0183097 -0.109889 0.0308642 0.115601 
2981 1 0.00380855 -0.0417811 -0.00179919 0.0419928 
64 1 -2.99546e-05 -0.148284 -0.129068 0.196588 
193 1 0.0899725 0.11965 -0.0865044 0.172899 
44 1 0.0273362 0.00141203 -0.0340873 0.0437173 
2996 1 0.0888756 0.031107 -0.214198 0.233981 
4212 2 0.0640865 0.0915134 -0.149348 0.186512 
3279 1 0.00402175 -0.00769321 -0.0430997 0.0439652 
257 1 0.0127587 0.00224536 -0.0913627 0.0922766 
178 1 0.0676557 0.017316 -0.135306 0.152266 
330 1 0.0773331 0.227392 0.111431 0.264772 
103 1 -0.11372 0.0713049 0.0614171 0.14761 
3841 2 -0.0750514 -0.105612 0.106311 0.167596 
600 1 -0.0777429 0.0982636 0.0137171 0.126047 
338 1 -0.0832815 -0.0215657 0.0868201 0.122224 
4101 2 0.00161642 0.00443184 -0.0405416 0.0408152 
949 1 -0.0598605 0.113526 0.153538 0.200113 
3608 2 -0.0105703 0.0902977 0.0420801 0.10018 
2995 1 -0.157062 -0.138988 -0.060882 0.218387 
4217 2 0.0193771 0.0685036 0.00201416 0.0712199 
479 1 -0.0348934 0.0959698 0.0404036 0.109819 
3335 1 0.026557 0.0752069 -0.0867414 0.117836 
1457 1 -0.0553612 0.00957206 -0.0214323 0.0601318 
3037 1 -0.076884 0.199572 0.00129063 0.213874 
4253 2 -0.0195809 0.0480809 -0.0564176 0.076669 
387 1 -0.088452 0.0841732 0.0121664 0.122707 
3736 2 -0.0925842 0.0539831 0.00550069 0.107314 
3394 1 -0.0314255 -0.115374 -0.0304353 0.12339 
508 1 -0.00336728 0.00971335 0.0463364 0.0474632 
3537 2 0.0805677 -0.0745169 0.094034 0.144521 
747 1 -0.01157 0.00233589 0.0897335 0.0905065 
497 1 0.0246304 -0.0893283 0.0397729 0.100837 
958 1 -0.0316025 -0.0719246 0.120354 0.143725 
3130 1 -0.02106 -0.0720358 0.00737816 0.0754129 
4163 2 0.0197913 0.0263016 0.0907047 0.0964925 
3643 2 -0.0247825 0.113671 0.0865953 0.145031 
133 1 0.011728 -0.0804909 0.212406 0.227448 
4204 2 -0.0545538 0.0652836 0.155301 0.177078 
86 1 0.279629 0.0448844 0.0715536 0.292108 
759 1 0.0200122 -0.0410319 0.0515523 0.0688603 
3411 1 -0.00903183 -0.107958 0.0626489 0.125145 
835 1 0.00897094 -0.0999134 0.335377 0.350058 
3057 1 0.00765293 0.0152507 -0.00669021 0.0183279 
3620 2 -0.0365568 -0.0238891 -0.0620752 0.0758974 
241 1 0.0933721 -0.00663458 0.070777 0.117353 
704 1 0.292921 -0.0353925 -0.112677 0.315835 
3599 2 -0.0470456 0.176825 0.0153762 0.183622 
157 1 0.185414 0.16592 0.0535922 0.254518 
54 1 0.131362 -0.253171 0.0060355 0.285286 
493 1 0.0810811 0.108024 -0.0836423 0.158869 
204 1 0.0889158 0.176311 -0.140125 0.242129 
254 1 -0.099529 0.29385 -0.0993794 0.325776 
67 1 0.149383 0.0758334 -0.0785976 0.18505 
2988 1 -0.135858 0.097793 -0.190324 0.253465 
3030 1 -0.166946 0.198244 -0.141328 0.295204 
4050 2 0.0637222 0.134734 -0.0434163 0.155238 
3479 2 -0.026882 0.196696 -0.004208 0.198569 
674 1 0.0591094 -0.00693507 -0.128192 0.141334 
2004 1 -0.150228 0.0677625 -0.0662849 0.177634 
2934 1 0.0349187 0.0743346 -0.103859 0.132407 
3216 1 -0.13221 0.0412563 -0.047585 0.146444 
234 1 0.0727618 0.000644347 -0.15173 0.168275 
1036 1 0.037371 -0.0938484 -0.0508429 0.113089 
3369 1 -0.00426164 0.0157111 0.0520221 0.0545097 
3607 2 -0.0162521 0.147039 -0.131081 0.197653 
3139 1 -0.0549087 0.0421975 -0.195298 0.207212 
644 1 -0.31641 -0.228351 -0.15904 0.421371 
1278 1 -0.0399264 0.0148548 -0.0728854 0.0844219 
4269 2 -0.174938 0.0132007 0.0835008 0.194293 
3007 1 -0.0935819 -0.0480887 -0.0207902 0.107249 
559 1 0.185994 0.0383529 -0.0607545 0.199389 
4089 2 0.0461364 0.172064 0.0181705 0.179067 
214 1 -0.0445551 0.0291539 0.0834078 0.0989544 
640 1 0.063593 -0.0200687 0.00380624 0.0667931 
199 1 0.0158448 -0.0994081 -0.0756888 0.125944 
245 1 -0.123394 -0.211586 0.0934116 0.262146 
2758 1 -0.0508098 0.0844945 0.0346364 0.104502 
3056 1 -0.00785435 -0.123088 -0.0274819 0.126363 
3468 2 -0.0228986 -0.24392 -0.0642742 0.253284 
563 1 0.0281985 -0.00866551 -0.0670649 0.0732663 
2977 1 0.0890836 -0.0331857 0.00200867 0.0950852 
1149 1 0.0532519 -0.0438991 -0.0178803 0.0712923 
2684 1 -0.205215 0.00213996 -0.0147629 0.205757 
249 1 -0.0577934 -0.0198858 0.0203619 0.0644215 
3096 1 -0.0652499 0.0847149 0.142555 0.178202 
240 1 0.0319795 -0.0885223 0.120692 0.153054 
181 1 -0.029564 0.039867 0.189692 0.196077 
46 1 -0.0452996 -0.0673534 0.0285277 0.086037 
3211 1 0.0117779 0.0127081 0.0100158 0.0200133 
4098 2 -0.0731041 0.0723498 0.140079 0.173784 
95 1 -0.0765956 -0.204539 -0.0484648 0.223723 
2939 1 -0.072374 -0.134433 0.027542 0.155142 
3512 2 -0.0923324 -0.00644803 -0.020375 0.0947733 
3603 2 -0.0980951 -0.0839142 -0.017287 0.130242 
3701 2 -0.0501362 0.182858 0.0150629 0.190204 
3513 2 -0.148153 0.112506 -0.0604236 0.195596 
312 1 -0.0313309 -0.0379272 0.176219 0.182957 
587 1 0.0111145 0.109493 -0.0768049 0.134206 
134 1 0.028979 0.195845 -0.00533169 0.198049 
135 1 -0.0548159 -0.0390239 -0.214164 0.224486 
3003 1 -0.0518665 0.0231879 -0.0611704 0.0834843 
191 1 -0.0283089 0.0313895 -0.0451449 0.0618446 
685 1 -0.0475177 -0.136217 -0.0870506 0.168496 
602 1 0.034438 -0.0856821 0.0901033 0.129019 
195 1 0.00485074 0.141499 0.043106 0.147999 
3092 1 -0.0115602 -0.0315856 0.0224944 0.0404634 
4195 2 -0.207746 -0.154529 -0.107946 0.280518 
80 1 -0.201726 0.00674024 -0.0365148 0.205115 
540 1 -0.099 -0.121437 0.309509 0.346906 
920 1 -0.0258978 0.0885223 -0.0858235 0.125986 
427 1 0.021615 -0.0776829 -0.0382717 0.0892556 
4173 2 0.121115 -0.0540256 -0.0713711 0.150603 
2950 1 -0.225385 -0.16487 -0.00248232 0.279261 
6 1 -0.0156122 -0.252967 -0.10049 0.272644 
182 1 0.169737 -0.0219268 -0.188757 0.254795 
690 1 0.064474 -0.0935753 -0.159341 0.195711 
3408 1 -0.0942531 0.0268674 0.0690826 0.119908 
902 1 -0.0259824 0.0246499 -0.112769 0.11832 
154 1 -0.109774 0.0878434 -0.0920354 0.16804 
710 1 -0.193484 -0.210052 -0.19728 0.347099 
3115 1 -0.153129 0.00597926 0.104012 0.18521 
742 1 -0.176675 -0.176369 -0.319851 0.40574 
2926 1 -0.20252 -0.136926 0.035959 0.247096 
446 1 -0.0116828 -0.0446532 0.0285708 0.0542834 
580 1 -0.0977444 -0.0698168 0.231498 0.260806 
3518 2 -0.155401 0.212124 0.0566949 0.268998 
354 1 0.2032 0.0353925 0.13048 0.244065 
116 1 -0.0986686 -0.0876116 -0.0117824 0.132477 
3493 2 -0.0460792 0.0425265 0.0902172 0.109868 
1179 1 0.140264 0.173832 -0.0958975 0.24308 
233 1 0.0282711 0.102243 0.295378 0.313849 
205 1 -0.0580945 0.0786186 0.064881 0.117326 
694 1 -0.0891301 0.0439344 0.117826 0.154135 
861 1 0.0634645 0.062578 -0.0720473 0.114606 
3549 2 -0.0754559 -0.0676235 0.0882725 0.134382 
4014 2 -0.0577428 -0.0856414 0.0768798 0.12876 
3401 1 -0.0858299 0.0539678 0.112729 0.151615 
3678 2 0.0346411 0.0512731 0.190159 0.199974 
614 1 0.0429855 0.0101081 0.0207717 0.0487995 
3341 1 -0.177939 0.138495 0.110813 0.251243 
512 1 -0.0213258 0.130747 0.0918016 0.161174 
300 1 0.011482 0.0857 0.0514453 0.100613 
393 1 0.0288186 -0.00917971 0.0223683 0.0376181 
2740 1 0.0134987 0.0733975 0.0743121 0.105317 
3197 1 -0.0228075 0.0612938 0.0420153 0.0777328 
4006 2 0.0496296 0.26021 0.104603 0.284806 
286 1 -0.158138 0.0664614 0.0504354 0.178798 
886 1 0.0250921 -0.0492904 0.0487896 0.0737535 
277 1 -0.0776381 -0.0978986 0.0866659 0.152062 
364 1 -0.0809747 0.0628333 -0.0579382 0.117736 
1367 1 0.00125356 0.0498355 0.0272931 0.0568336 
411 1 -0.050692 0.161667 -0.0179508 0.170376 
334 1 -0.0208415 0.0256598 0.00398833 0.0332971 
356 1 0.00251461 -0.0984097 -0.0830961 0.128825 
3664 2 0.0621956 0.0316219 0.0396323 0.0802431 
357 1 0.0454731 0.0939621 -0.182756 0.210467 
265 1 -0.0638467 0.020946 -0.126457 0.143201 
3389 1 0.0238489 0.0106545 -0.0665498 0.0714924 
362 1 0.0241059 0.0405879 -0.210579 0.215805 
478 1 0.0654594 0.184575 -0.149988 0.246677 
4159 2 -0.017648 0.0125869 -0.165646 0.167059 
2696 1 0.020763 -0.0435617 -0.116053 0.125687 
966 1 0.0536323 0.221539 -0.0346956 0.230564 
3612 2 0.0372658 0.0622607 -0.100005 0.123557 
3392 1 -0.195276 0.0675465 0.1417 0.250548 
780 1 0.128839 -0.0901423 -0.0750872 0.174251 
924 1 0.0142028 0.0018696 -0.0119839 0.0186769 
2710 1 -0.0232427 -0.0407863 0.0209696 0.0514147 
3313 1 -0.00463756 -0.0431463 0.0561478 0.0709626 
3482 2 -0.0895355 -0.0378725 -0.0181987 0.0989046 
771 1 -0.00874274 0.0663335 -0.035359 0.0756758 
3333 1 0.0114444 -0.0821774 0.114895 0.141721 
3303 1 0.119256 -0.111557 0.0949831 0.188914 
3526 2 -0.0386673 0.0502693 -0.00439539 0.0635726 
3249 1 -0.0765396 -0.0139991 0.0397037 0.0873537 
92 1 -0.0469308 -0.127368 0.2322 0.268965 
3379 1 0.0299225 0.029413 -0.0495701 0.0649436 
1449 1 -0.00418537 0.0245295 -0.0636711 0.068361 
903 1 0.0405239 0.147823 -0.0163214 0.154143 
1077 1 0.047062 0.0859207 0.208606 0.230464 
462 1 -0.0440272 -0.121864 0.113523 0.172269 
2966 1 0.00970728 0.0202623 -0.0711808 0.0746424 
3022 1 0.0412286 0.0855012 -0.0960667 0.135052 
750 1 0.0539999 -0.0210346 -0.0240358 0.0627388 
3162 1 0.0791165 0.00776305 -0.000937871 0.079502 
449 1 -0.0629819 0.0862693 -0.101833 0.147577 
3658 2 -0.0366756 0.196097 0.0246739 0.201017 
287 1 -0.177049 -0.0195411 -0.0042549 0.178175 
3647 2 -0.329489 0.177913 -0.0525409 0.378123 
2890 1 -0.0689975 0.140901 -0.0476919 0.163977 
1285 1 -0.189817 0.273375 0.0993414 0.347323 
943 1 -0.177045 -0.0166033 0.0407652 0.182434 
3305 1 0.152151 0.135504 -0.083429 0.220163 
3209 1 -0.121803 -0.108569 -0.114515 0.199341 
3409 1 -0.0874742 -0.116819 0.0061099 0.146068 
3257 1 0.0903673 -0.0535685 -0.0490415 0.115935 
4318 2 -0.233856 0.0870347 0.219862 0.33257 
3883 2 0.153937 0.0411182 0.082222 0.179298 
3531 2 0.182252 -0.00365146 -0.0715701 0.195835 
3227 1 0.0837884 -0.0242765 0.211504 0.228788 
373 1 0.301799 0.000648924 0.127126 0.327482 
4297 2 0.0840299 -0.0334245 0.265469 0.28045 
3404 1 0.180961 0.00788827 -0.086461 0.200711 
398 1 -0.101751 -0.00877286 -0.130295 0.16555 
2732 1 0.0312569 -0.0790005 -0.104296 0.13452 
3221 1 0.0735539 -0.00837034 -0.118679 0.139874 
836 1 -0.0696238 -0.0383411 -0.0815657 0.113888 
309 1 0.0848064 0.102204 -0.0866799 0.158592 
394 1 0.0547641 0.0519473 -0.10021 0.125457 
412 1 0.0797227 -0.0567123 -0.120283 0.155049 
1212 1 -0.113073 0.0331997 0.0717416 0.137966 
3573 2 -0.0301799 0.0473319 -0.127602 0.139403 
3360 1 -0.0192959 -0.11 -0.167638 0.201432 
3319 1 0.0456172 -0.0361025 -0.00633586 0.0585189 
3588 2 -0.0389676 0.0398779 0.032937 0.0647577 
2365 1 0.0771763 0.0225103 -0.114712 0.140077 
306 1 -0.0482081 -0.0425189 0.0461142 0.07911 
3093 1 -0.126418 0.115647 -0.145978 0.225089 
2745 1 -0.103205 0.103706 -0.0758075 0.164782 
355 1 -0.12082 -0.0131759 -0.0103697 0.121978 
3097 1 0.10945 0.0187955 -0.114805 0.159727 
468 1 0.135722 0.213466 0.25094 0.356313 
228 1 0.00323669 0.0487761 -0.00901961 0.0497085 
3324 1 -0.0481548 0.125028 -0.00653001 0.13414 
951 1 -0.134943 0.254027 0.17118 0.334726 
2737 1 -0.0600726 0.0361102 -0.0525333 0.0875923 
2959 1 -0.0678858 0.216877 -0.0661644 0.236689 
4284 2 -0.0559645 0.0752995 0.185638 0.207999 
4225 2 0.211635 0.181246 0.0813112 0.29026 
3192 1 0.113918 -0.0923031 0.0970145 0.175809 
4116 2 -0.0527273 -0.00297579 -0.0443728 0.068978 
716 1 0.243157 -0.0144091 -0.0422293 0.247217 
3301 1 -0.0961891 0.122088 -0.168289 0.229083 
601 1 0.107324 0.098164 -0.00906568 0.145728 
3094 1 0.0291163 -0.0592985 -0.049921 0.0828021 
3617 2 0.0560173 -0.0483431 -0.0427571 0.0854585 
206 1 -0.0354704 -0.0125977 -0.0486616 0.0615207 
71 1 -0.00136212 -0.00242672 -0.11493 0.114963 
3676 2 0.0147027 0.0220739 -0.165251 0.167365 
962 1 0.0485017 -0.149176 -0.0907243 0.18121 
4185 2 0.00714993 -0.13078 -0.0990504 0.164212 
3483 2 -0.0617798 0.139504 -0.142299 0.208631 
763 1 -0.0876095 0.118524 0.119346 0.189649 
3561 2 -0.0515383 -0.01383 -0.052368 0.0747655 
3290 1 -0.030317 0.0279148 -0.0536089 0.0676186 
388 1 -0.136856 0.0217865 0.160887 0.212341 
1313 1 0.054235 0.115573 -0.173045 0.215042 
444 1 -0.00839868 0.0165267 -0.0201736 0.0273979 
3668 2 -0.0843149 -0.0299839 -0.0725934 0.115229 
838 1 -0.0116972 -0.0237821 -0.0320265 0.0415706 
460 1 0.0473349 -0.0608218 0.00521127 0.0772467 
499 1 0.00581852 -0.0366729 -0.0440995 0.0576501 
3548 2 -0.757743 -0.348055 -0.0645201 0.836349 
291 1 0.0743585 0.224636 -0.0589763 0.243862 
482 1 0.154542 0.0676811 0.131583 0.213958 
1314 1 -0.015948 0.0409617 -0.0158303 0.0467204 
3672 2 0.112429 0.0709338 0.0675124 0.149097 
375 1 0.122321 -0.122819 -0.01533 0.174017 
94 1 0.156413 -0.103661 -0.127451 0.226836 
3281 1 0.0192044 -0.0149707 0.0637359 0.068229 
37 1 -0.0655223 0.0478263 0.121838 0.146373 
3321 1 -0.00377305 0.0494102 -0.129873 0.139006 
2961 1 0.0119004 0.0699324 0.179357 0.192875 
3380 1 0.0466114 -0.0723095 0.100334 0.132167 
901 1 -0.0477971 -0.103265 -0.0736903 0.135567 
4309 2 -0.0438727 -0.0335308 0.113164 0.125917 
392 1 0.0620414 -0.0810017 -0.068246 0.122751 
436 1 -0.0160383 -0.0460674 -0.0282137 0.0563511 
792 1 -0.0433848 -0.122464 -0.0115749 0.130437 
3293 1 -0.0709953 -0.0217051 0.0662883 0.0995268 
3320 1 0.0431511 -0.205587 0.0148258 0.210589 
3095 1 -0.149245 0.0281602 -0.0384883 0.15668 
318 1 0.059133 -0.0922921 0.0208347 0.111573 
3350 1 -0.12837 -0.0845432 0.0957649 0.1811 
3314 1 -0.07165 0.0620698 -0.221255 0.240708 
2861 1 -0.125581 -0.0342125 0.142149 0.192736 
3180 1 -0.150294 0.0359172 -0.0093519 0.154809 
3150 1 -0.0948756 -0.124098 0.0387379 0.160942 
2479 1 -0.00151442 -0.00160544 0.14805 0.148067 
160 1 0.0366234 0.100918 0.0526548 0.119575 
3535 2 -0.0188502 0.0491919 -0.0967365 0.11015 
483 1 0.0170701 0.0191414 0.066597 0.0713649 
4264 2 0.171307 -0.211229 -0.0609538 0.27871 
100 1 -0.0143941 0.00640431 0.055428 0.0576235 
1304 1 0.169052 -0.164893 -0.0687771 0.245965 
433 1 -0.0294377 -0.047997 -0.0446444 0.0718569 
2965 1 -0.268194 0.0713043 0.0523169 0.282399 
3234 1 -0.0985621 0.00908928 -0.000394274 0.0989811 
1354 1 -0.113889 -0.13186 0.0839844 0.19342 
772 1 -0.0731319 -0.0196876 -0.0376965 0.0845985 
4271 2 0.0853279 -0.0577258 -0.0509293 0.114921 
1172 1 0.0240487 -0.00163959 0.0214567 0.032271 
652 1 0.126354 -0.14154 -0.100943 0.214915 
3568 2 -0.0131005 0.0761286 -0.0436531 0.0887286 
3433 1 -0.131896 0.136902 -0.0325595 0.19287 
3419 1 -0.111252 -0.0649047 0.0786667 0.150924 
248 1 0.0610034 0.0657141 0.0633889 0.109809 
3560 2 0.0264416 -0.0322016 -0.246486 0.249983 
419 1 0.297236 -0.185535 0.310664 0.468278 
3082 1 0.0424259 -0.0205458 0.0231939 0.0525362 
917 1 -0.0316928 -0.0815771 -0.00739399 0.087829 
2969 1 0.0768301 -0.05383 0.205909 0.226272 
325 1 -0.118801 -0.0997734 0.000647337 0.155141 
292 1 0.0392994 -0.10734 0.0425959 0.121987 
3444 1 -0.0837273 0.0518931 -0.0214746 0.100818 
908 1 0.00899693 -0.0950446 0.0837188 0.126977 
3504 2 0.145103 -0.217138 0.00184089 0.261165 
423 1 0.0966963 -0.11491 -0.0243144 0.152137 
502 1 0.019241 -0.050197 0.0347136 0.0639921 
3435 1 -0.131301 -0.125719 0.00650366 0.1819 
430 1 -0.140714 -0.13463 -0.000736453 0.194746 
439 1 0.0377217 -0.0728434 0.0194373 0.0843024 
3331 1 0.0252852 -0.0903273 -0.0113861 0.0944882 
4182 2 -0.0431784 -0.0207985 0.010211 0.0490022 
874 1 0.0370934 -0.151114 0.083931 0.176793 
980 1 -0.0121975 -0.0946427 0.0346091 0.101508 
810 1 0.061283 -0.0725607 0.191837 0.214061 
3312 1 0.124133 -0.162614 0.0137775 0.205042 
4154 2 -0.0598266 0.0901706 -0.060125 0.123794 
225 1 0.0130204 -0.228692 0.0624486 0.237422 
4280 2 0.0133475 -0.0889722 -0.068875 0.113305 
416 1 0.0257346 -0.0222857 0.139177 0.14328 
365 1 0.0154485 -0.13928 -0.0128364 0.14072 
3799 2 -0.00583335 -0.148302 -0.0142894 0.149103 
2819 1 -0.0544049 -0.0606297 0.138985 0.161099 
382 1 0.180852 0.122887 -0.137528 0.258307 
404 1 0.0425198 -0.0544755 -0.0778319 0.104083 
2776 1 0.174428 -0.0842993 -0.0235459 0.195156 
2973 1 -0.0378224 -0.076742 -0.0101549 0.0861568 
957 1 0.0933052 -0.0505747 -0.107921 0.151363 
795 1 0.165961 0.0743523 0.0868683 0.201538 
490 1 -0.000439736 -0.0406243 0.0892789 0.098088 
3266 1 0.129048 0.0556495 0.0930063 0.168525 
4285 2 -0.0830756 0.0260154 0.164095 0.185757 
496 1 -0.102805 0.00341161 0.184031 0.210827 
2993 1 0.00973426 0.0925712 0.037088 0.100198 
4256 2 -0.02354 0.000821351 0.0527001 0.0577244 
471 1 -0.0136225 0.0515718 0.163488 0.171969 
517 1 -0.075451 0.0733639 0.0584997 0.120405 
279 1 -0.134128 0.284513 0.173894 0.359412 
107 1 -0.0933126 -0.051543 -0.0625504 0.123598 
275 1 0.226812 0.10947 0.0752317 0.262844 
4028 2 -0.0399405 0.0190235 0.185359 0.190565 
3487 2 0.0739807 -0.10377 0.0320218 0.131403 
3322 1 0.150074 0.101671 0.0511021 0.188337 
3863 2 -0.0652787 -0.140238 -0.0038638 0.154735 
274 1 0.0138345 -0.0804512 -0.0446738 0.0930566 
1091 1 -0.0307263 -0.138777 0.0511497 0.151061 
3396 1 0.116572 -0.104001 0.0937412 0.182189 
349 1 -0.036282 -0.206844 -0.0611379 0.21872 
329 1 -0.193377 0.0992861 -0.0830719 0.232709 
2545 1 -0.0633062 -0.0214378 0.114513 0.132592 
3327 1 -0.140122 -0.0599106 0.0267007 0.154714 
3674 2 -0.0994807 0.168584 0.241696 0.31102 
1418 1 0.0664116 -0.162409 -0.0677365 0.188084 
443 1 0.0361516 -0.0424493 0.188022 0.196115 
855 1 -0.0642571 -0.0456731 -0.122884 0.145998 
4298 2 -0.241242 -0.223971 0.0668386 0.335899 
3476 2 0.0245235 -0.23744 -0.0406837 0.242146 
2869 1 -0.0677286 -0.0535422 0.0964889 0.129476 
4307 2 0.0252402 0.0110602 -0.211451 0.213239 
177 1 -0.0589317 -0.037015 0.068903 0.097932 
363 1 -0.0458576 -0.231364 -0.0808055 0.249323 
1450 1 -0.11767 -0.0160995 0.104927 0.158478 
3559 2 -0.00897898 0.0250008 0.0563739 0.0623191 
347 1 -0.120176 -0.0232425 -0.0357399 0.127514 
4237 2 0.00816978 -0.0399092 -0.0172405 0.0442349 
319 1 -0.0851986 0.0688333 0.149931 0.185678 
830 1 -0.0660621 -0.0811574 0.00795153 0.104947 
295 1 -0.0238123 -0.0788402 -0.196525 0.213084 
937 1 -0.084347 -0.0111221 0.00114498 0.0850848 
268 1 0.0539664 -0.0672041 -0.0354817 0.0932079 
854 1 0.068205 0.0421069 -0.0206466 0.082772 
442 1 0.0115689 0.00247381 0.0260593 0.028619 
875 1 0.145155 -0.105575 0.111611 0.21136 
501 1 0.245282 -0.00612873 0.209216 0.322447 
1289 1 0.0621407 -0.0349142 0.0828658 0.109303 
3291 1 0.128452 -0.088863 -0.00416108 0.156249 
314 1 0.00109761 -0.0486202 0.0795247 0.0932164 
474 1 -0.088772 0.0314817 -0.222176 0.241317 
3070 1 0.200455 -0.0234778 -0.107489 0.228664 
964 1 -0.117815 0.21295 -0.0709324 0.253494 
793 1 -0.0455635 0.00375411 0.0130971 0.0475569 
3397 1 -0.0424001 -0.0321312 0.00638331 0.0535811 
899 1 -0.0210742 -0.0578573 -0.0711123 0.0940667 
1337 1 -0.072729 -0.00496146 0.0600274 0.0944321 
3278 1 -0.0342453 0.0241609 -0.105904 0.113895 
3544 2 -0.130789 0.0759685 0.0732195 0.168042 
1430 1 -0.18246 -0.0306241 0.0547427 0.192941 
3200 1 -0.0440435 0.000600763 0.184595 0.189778 
757 1 0.00367877 0.0633514 0.0563521 0.0848675 
822 1 -0.0334036 -0.00265177 0.174094 0.17729 
85 1 -0.00596357 0.0870923 0.309023 0.321117 
699 1 0.0164259 0.105874 -0.0495953 0.118063 
3383 1 0.0590749 -0.0913969 0.0683412 0.128506 
3240 1 -0.2431 -0.229419 0.00894529 0.334381 
113 1 -0.00184475 0.0841665 0.113704 0.141478 
504 1 0.147438 0.129043 0.215868 0.291529 
2795 1 -0.0454895 -0.0571645 0.180077 0.194331 
863 1 0.0463637 -0.0222687 0.143179 0.152137 
581 1 0.106098 -0.123406 0.156762 0.225965 
3541 2 -0.145035 0.118675 -0.0154659 0.188037 
786 1 0.0654172 -0.14528 0.0550759 0.16858 
800 1 -0.0157588 -0.0526936 0.0638224 0.0842511 
367 1 0.292964 0.0446786 0.0438966 0.299584 
2687 1 0.043647 -0.0316481 0.0505987 0.0739385 
3545 2 -0.00643702 -0.147692 -0.137004 0.201555 
491 1 -0.0375048 -0.0649251 -0.00571709 0.0751968 
840 1 -0.077199 -0.0220982 -0.132302 0.154764 
3434 1 0.0976471 -0.0249383 -0.0242392 0.103655 
2814 1 0.0628389 -0.0756752 -0.0741185 0.123163 
1723 1 -0.00111369 -0.0345463 -0.0344823 0.0488233 
3264 1 0.0901049 -0.0524171 0.0785554 0.130527 
440 1 -0.0539895 0.072387 0.0914593 0.128528 
431 1 0.117109 -0.0461684 -0.00788867 0.126128 
402 1 0.0474672 -0.154882 0.289708 0.331922 
968 1 -0.0367376 0.0175289 0.0931801 0.101683 
801 1 0.00893672 -0.156607 -0.0122331 0.157338 
2656 1 0.11396 0.0815741 -0.165868 0.217149 
421 1 -0.000414435 -0.0514944 -0.245656 0.250995 
4152 2 0.0515445 -0.0365204 -0.0483201 0.0795324 
461 1 -0.110408 0.34522 0.0407527 0.36473 
647 1 0.029823 0.0728944 0.103314 0.12991 
3436 1 -0.181913 -0.115692 0.0261197 0.217162 
3371 1 0.0096506 0.208872 -0.205716 0.293325 
486 1 -0.0397735 0.32929 0.192956 0.383726 
308 1 0.0106971 0.0153985 -0.0795587 0.0817382 
307 1 -0.0116988 -0.0896784 -0.0144573 0.0915865 
3339 1 -0.272782 0.157503 0.143102 0.34597 
4143 2 -0.325809 -0.136871 0.277117 0.449087 
2873 1 -0.129296 -0.0452526 0.155219 0.207022 
2884 1 -0.0153273 -0.0704805 -0.0626848 0.0955605 
781 1 -0.0752155 -0.0890191 0.140675 0.182678 
3378 1 0.102987 0.340725 0.0316431 0.357353 
183 1 -0.255458 -0.128634 -0.268975 0.392623 
128 1 0.0253191 0.0293857 0.0564591 0.0684996 
907 1 0.0195457 -0.0842381 -0.0184104 0.088414 
1641 1 -0.0386644 0.00864226 -0.163466 0.168198 
202 1 -0.104818 -0.0794747 -0.0191859 0.132933 
1300 1 0.00192384 -0.0146672 -0.0217198 0.0262789 
1934 1 0.0492463 -0.022236 -0.0417991 0.068314 
891 1 -0.14376 -0.117248 -0.00400282 0.185554 
3778 2 -0.00133937 -0.0271542 -0.0749729 0.0797501 
1269 1 -0.152055 -0.206967 0.143313 0.2941 
1535 1 -0.0271201 -0.0359551 -0.030548 0.0544192 
573 1 0.0303114 0.0866595 0.00739572 0.0921051 
3844 2 -0.0167996 0.0287231 -0.125502 0.129838 
631 1 0.00736364 0.058205 0.0133474 0.0601681 
606 1 -0.00557549 0.114246 0.158775 0.195686 
3600 2 0.336011 0.0295471 -0.215709 0.400383 
627 1 -0.0559774 -0.0168559 -0.0817338 0.100489 
1474 1 0.0475381 0.151957 0.103056 0.189661 
1569 1 -0.0691754 -0.161018 0.034547 0.178621 
63 1 0.00331849 -0.0176201 0.121829 0.123141 
577 1 -0.0969805 0.00674004 0.137031 0.168012 
565 1 -0.000796101 -0.0310237 0.118739 0.122728 
3616 2 -0.100664 0.0553682 0.212188 0.241294 