ITEM: TIMESTEP
700000
ITEM: NUMBER OF ATOMS
4320
ITEM: BOX BOUNDS pp pp pp
0.0000000000000000e+00 1.9309999999999999e+01
0.0000000000000000e+00 1.9309999999999999e+01
0.0000000000000000e+00 9.6549999999999994e+00
ITEM: ATOMS id type c_displacement[1] c_displacement[2] c_displacement[3] c_displacement[4] 
381 1 -0.0503214 -0.281763 0.0438281 0.289557 
2478 1 0.172734 -0.425467 0.636753 0.785057 
3196 1 -0.0684132 -0.195659 -0.243079 0.319453 
817 1 -0.0204888 -0.0829647 -0.118287 0.145927 
303 1 -0.0717773 -0.667312 -0.232759 0.710376 
722 1 -0.358173 -0.179571 0.0696322 0.406672 
677 1 0.0847614 -0.119414 0.241037 0.282034 
87 1 0.427338 -0.117704 -1.21052 1.28912 
3230 1 0.0715205 -0.00276098 0.0776865 0.105631 
3651 2 0.237622 -0.174372 0.0577528 0.300342 
2939 1 -0.0315307 -0.127578 1.15119 1.15866 
66 1 0.20501 0.0544479 -0.0839223 0.228116 
3512 2 0.456275 -0.839435 0.361865 1.02166 
151 1 -0.196898 -0.281156 -0.195288 0.394912 
171 1 0.743192 -1.23379 -0.667251 1.58738 
716 1 -0.286213 -0.476678 0.17315 0.582341 
18 1 -0.168845 -0.474844 0.0295577 0.504836 
727 1 0.0769903 -0.0591519 0.132403 0.164186 
688 1 0.305583 0.0952012 0.192124 0.373304 
58 1 0.139369 -0.0161356 0.0884822 0.165871 
190 1 -0.0956468 -0.276859 -0.0835945 0.30461 
3514 2 0.24513 -0.13374 0.187563 0.336385 
4177 2 -0.377791 -0.134865 -0.297553 0.499452 
2960 1 -0.271607 -0.0244752 0.138165 0.305711 
3743 2 -0.38948 0.469069 -0.819429 1.02136 
217 1 0.130798 -0.27719 -0.137198 0.335806 
775 1 0.380019 -0.469064 0.174549 0.628413 
823 1 0.434777 -0.516121 -0.19369 0.702088 
608 1 -0.267394 0.18528 -0.555909 0.644099 
28 1 0.0705983 0.290804 -0.5529 0.628689 
2961 1 -0.61219 0.470687 0.158555 0.788329 
4170 2 -0.0324671 -1.14033 -1.1016 1.58586 
180 1 -0.0630696 -1.0825 0.767267 1.32834 
255 1 0.0831283 -0.481927 -0.360179 0.607366 
298 1 0.0471303 0.105736 -0.386485 0.40345 
215 1 -0.528634 -0.397645 0.18175 0.686009 
129 1 0.644117 -0.258503 0.0644296 0.697038 
121 1 0.874539 0.0587652 -0.198049 0.898607 
562 1 0.997647 -0.11959 -0.23571 1.03207 
2453 1 -0.570039 0.543852 -1.1601 1.40234 
70 1 1.19465 0.221283 0.200781 1.23145 
232 1 0.332372 0.252809 -0.283494 0.50473 
327 1 0.431301 -0.324735 0.102915 0.549604 
532 1 -0.241919 0.0317477 0.095591 0.262051 
473 1 -0.256616 -0.269952 -0.269291 0.459612 
246 1 0.425259 0.149086 -0.162997 0.479207 
4214 2 -0.0683354 0.428884 0.111003 0.448255 
3808 2 0.252718 -0.432368 -1.01842 1.1349 
4197 2 1.2821 1.24818 0.0630789 1.79045 
3251 1 0.528069 0.128007 -0.0982401 0.552172 
23 1 0.0246231 0.0429573 -0.250472 0.255319 
728 1 0.199606 -0.0186526 0.464485 0.505902 
3455 1 1.59957 0.342237 1.38867 2.14573 
484 1 1.25414 -0.0942843 1.20321 1.74054 
3135 1 0.240111 0.666834 -0.228428 0.744648 
197 1 0.275041 0.51511 -0.44076 0.731612 
4053 2 1.59037 -0.413848 0.657494 1.76999 
4225 2 0.859206 1.11657 -0.69077 1.56912 
3189 1 -0.283439 0.360063 -0.304269 0.550057 
2945 1 0.322178 -0.30646 1.7368 1.79282 
2983 1 0.587684 -0.0596916 -0.0304325 0.591491 
527 1 0.324616 -0.275897 -0.0710031 0.431898 
1415 1 -0.0274284 -0.305879 0.0198218 0.307745 
3002 1 0.432659 0.071843 -0.512049 0.674202 
894 1 0.169379 1.41306 0.383835 1.47402 
110 1 -0.463769 0.00247511 0.458089 0.651869 
93 1 0.136708 -0.164949 -0.115182 0.243237 
639 1 -0.16182 -0.319843 -0.010937 0.358615 
3353 1 -0.38271 -0.359553 0.869589 1.01584 
569 1 -0.0744012 -0.211113 0.495266 0.5435 
1133 1 0.353411 0.0640525 -0.0780473 0.367551 
106 1 -0.463185 -0.491721 0.653595 0.939956 
2056 1 1.27182 -0.570581 0.159984 1.4031 
2596 1 -0.155437 -0.125956 -0.245094 0.31638 
3055 1 -0.0839643 0.493345 -0.360447 0.616734 
2495 1 0.186502 -0.00802172 -0.274867 0.332264 
3835 2 0.312993 0.990522 0.32344 1.08798 
3232 1 -0.0146398 0.187343 -0.766597 0.789293 
3152 1 0.00416605 0.125454 -0.705923 0.716996 
400 1 0.0300907 -0.956493 -0.440059 1.0533 
3627 2 1.14893 1.49363 0.42622 1.932 
3712 2 0.546825 0.269854 0.64434 0.887138 
12 1 0.100309 0.585465 -0.612026 0.852882 
738 1 0.201031 0.092778 -0.706337 0.740225 
339 1 -0.556675 -0.452898 -0.382762 0.813332 
3167 1 0.0517962 0.206548 -0.234757 0.316948 
1271 1 -0.731409 0.404174 -0.646164 1.05633 
623 1 0.0128669 0.224657 0.142455 0.266326 
568 1 0.618286 0.125565 0.102183 0.639129 
3460 2 0.195933 0.0121691 -1.43138 1.44478 
4289 2 -0.186281 -0.0430014 -0.800398 0.822914 
4278 2 -0.806666 -0.0309216 0.111527 0.814926 
210 1 0.643445 0.175357 0.260363 0.715934 
3632 2 -0.238899 -0.260054 -0.263174 0.440411 
390 1 0.114586 0.265949 -0.0405399 0.292408 
3244 1 -0.0344656 0.0615141 -0.00728554 0.0708868 
3346 1 -0.35553 0.0366059 -1.09001 1.14712 
3199 1 0.26608 0.173975 -0.254006 0.406922 
118 1 -0.0538123 -0.548561 0.300867 0.627962 
2987 1 -0.775312 0.321003 0.107817 0.846036 
4071 2 -1.26824 0.801754 1.14938 1.89006 
536 1 0.0713051 0.120967 0.837821 0.849506 
4256 2 -0.507629 1.51854 -1.16458 1.97987 
29 1 -0.153861 0.594114 0.102053 0.622141 
553 1 -0.653287 1.05014 -0.602415 1.37567 
753 1 -0.0930608 -0.0685306 0.1447 0.185189 
949 1 -0.343371 -0.118392 -0.192253 0.410952 
351 1 0.246077 -0.190704 0.200247 0.370164 
3877 2 0.0188698 -1.48699 -0.121674 1.49208 
3467 2 -0.0207458 0.712641 0.30847 0.776815 
53 1 0.57554 0.0895001 -0.267661 0.641014 
2735 1 0.192915 0.748819 0.231062 0.807054 
96 1 -0.173781 -0.344319 0.370567 0.53486 
437 1 0.799611 0.498267 -0.179558 0.959109 
725 1 0.495283 -0.0794105 0.712387 0.871267 
158 1 -0.187229 0.258693 -0.474991 0.572358 
3040 1 -0.154718 0.402737 0.469356 0.637519 
155 1 -0.0822683 0.0226878 -0.359051 0.369054 
718 1 0.00591107 1.39756 0.197101 1.4114 
3006 1 0.467802 0.00971248 0.269382 0.539907 
167 1 0.102412 0.330749 0.27496 0.442138 
550 1 0.114214 -0.265091 0.439104 0.525481 
21 1 -0.118565 -0.663924 0.913412 1.13542 
3149 1 0.0165477 0.598042 0.465705 0.758162 
3786 2 -0.0844725 -0.441647 -0.742881 0.868366 
2936 1 -0.175914 0.534238 -0.130719 0.577446 
147 1 0.542965 0.192107 -0.429991 0.718755 
2591 1 0.0878441 0.061885 -0.341441 0.35795 
4169 2 -0.597142 -0.0137523 -0.47606 0.763807 
610 1 -0.0711713 1.63701 -0.0472736 1.63924 
5 1 0.112528 0.495444 -0.0218411 0.508532 
821 1 -1.04975 0.00984525 -1.28343 1.65809 
859 1 0.0920088 0.221286 -0.101868 0.260404 
323 1 -0.973018 0.21253 0.501401 1.11505 
3478 2 0.831306 0.0658892 -0.0321526 0.834532 
988 1 -0.067379 0.136046 -0.218068 0.265711 
424 1 0.10661 -0.0736349 -0.144987 0.194445 
43 1 0.120514 0.0892019 -0.242066 0.28474 
3023 1 0.120855 0.228533 -0.163559 0.305917 
103 1 -0.455169 0.265079 -0.794186 0.952984 
3730 2 0.087299 0.0013143 -0.252531 0.267198 
2461 1 0.225939 -0.10261 -0.143275 0.28654 
915 1 -1.06715 0.623223 0.387821 1.29523 
1215 1 0.0846524 0.472234 0.376265 0.60971 
49 1 -0.537293 -0.0714554 -0.00166534 0.542027 
3335 1 0.685152 0.330868 -1.0636 1.30773 
78 1 0.161382 0.130749 -0.176056 0.272277 
3188 1 -0.0229445 0.458785 0.241743 0.519086 
3464 2 -0.662504 -1.20282 -0.344596 1.41578 
4257 2 1.81707 0.991501 0.665535 2.17434 
3491 2 0.573981 -0.171215 0.334985 0.686283 
343 1 0.390539 0.0786849 -0.683311 0.790965 
675 1 -0.64623 -0.253485 -1.7548 1.88711 
140 1 -0.435049 0.142367 0.23769 0.515783 
1487 1 -1.75875 -0.284524 -0.676077 1.90558 
691 1 0.098304 -0.645132 0.266879 0.705041 
529 1 -0.0254026 0.0544456 -0.0930279 0.110742 
1480 1 -0.138957 -0.405708 0.547911 0.695783 
4094 2 0.94262 -1.62556 -0.990684 2.12425 
609 1 -0.289736 0.672384 0.55308 0.917576 
1331 1 -0.335948 0.272111 0.225805 0.487743 
40 1 0.384721 -0.529579 -0.0631175 0.657608 
759 1 -0.25221 -0.588209 -0.545007 0.840614 
44 1 0.123933 0.152717 0.651791 0.680818 
3078 1 0.152993 0.255875 0.185177 0.350955 
98 1 0.698335 0.77565 0.612855 1.21033 
3041 1 0.0485678 -0.13939 0.597062 0.615037 
604 1 -0.61375 0.235119 0.31153 0.727338 
1130 1 0.263923 1.19493 0.312587 1.26302 
3118 1 0.0450353 -0.643376 -0.475188 0.801102 
3608 2 0.175827 0.200432 0.0534526 0.271929 
135 1 0.0841983 -0.0791174 0.226162 0.253965 
193 1 0.227373 0.0680337 0.225251 0.327208 
2996 1 -0.0885137 0.455731 -0.256895 0.530585 
4212 2 -0.362841 0.534763 0.0151839 0.646417 
3164 1 0.0374453 0.809831 0.031278 0.811299 
3279 1 0.223478 0.0565582 -0.20112 0.305925 
233 1 -0.0606581 1.60206 0.24728 1.62217 
95 1 -0.0379171 0.079973 0.288312 0.301591 
2981 1 -0.48081 0.247707 -0.378366 0.660075 
338 1 -0.0290672 0.0911487 -0.307374 0.321919 
4101 2 0.141879 0.0945488 -0.263224 0.313618 
600 1 -0.103295 0.279957 -0.0082493 0.298519 
3477 2 0.63084 -0.805095 -0.925975 1.3797 
3216 1 -0.0169534 0.278915 -0.129949 0.308168 
330 1 -0.271323 0.906896 -0.432116 1.04058 
446 1 0.00721724 0.054084 -0.294305 0.29932 
3841 2 0.135418 0.293854 -0.0381815 0.325801 
3736 2 -0.103511 -0.27059 -0.598238 0.664697 
387 1 0.20199 0.112301 -0.101194 0.252293 
379 1 -0.574814 -0.428837 0.287774 0.77274 
1457 1 0.171212 -0.045129 -0.0274186 0.179171 
4253 2 0.263203 -0.178389 0.14676 0.350196 
640 1 0.0756699 0.211299 -0.761184 0.793583 
3037 1 0.0417792 0.317684 -0.188919 0.371967 
3130 1 -0.45557 -0.23653 0.472585 0.69773 
602 1 -0.404 -0.151794 0.45489 0.627043 
2500 1 0.169732 -0.186722 0.388234 0.463033 
2931 1 -0.243952 -0.326765 0.85564 0.947844 
3537 2 -0.547733 0.217591 -0.287158 0.655604 
174 1 -0.483689 -0.293849 0.599682 0.824573 
3394 1 -0.861351 -0.294514 -0.0001569 0.91031 
508 1 -0.505388 -0.12411 0.690916 0.864977 
3544 2 0.109253 1.00557 -0.209983 1.03306 
717 1 -0.743972 0.00410135 1.09319 1.32234 
354 1 -0.0208196 -0.0615992 0.0180519 0.0674818 
2494 1 0.230856 -0.702629 -0.00616213 0.739608 
133 1 0.373778 0.178764 0.0444645 0.416706 
3411 1 -0.545595 0.184152 0.451129 0.731508 
3057 1 0.22286 0.422262 -0.620083 0.782607 
3634 2 0.223329 0.316979 2.72302 2.75049 
835 1 -0.42591 0.519485 -0.162063 0.691034 
3599 2 -0.0699619 0.446713 -0.338733 0.564967 
3518 2 -0.353406 0.155864 0.137171 0.409885 
64 1 -1.15894 -0.636579 0.284755 1.35258 
721 1 0.683739 -0.318912 0.500617 0.90544 
86 1 0.562369 0.487706 -0.411505 0.85056 
241 1 -0.721988 0.0653332 1.22088 1.41989 
204 1 -0.533518 -0.487763 -0.377245 0.815394 
254 1 -0.448229 0.0241523 -0.463219 0.64503 
2684 1 0.143161 -0.734816 -0.128786 0.759628 
593 1 -0.152988 0.940908 0.980058 1.3672 
178 1 -0.065905 0.140897 0.130496 0.203038 
2988 1 -0.702767 -0.17086 -0.665826 0.983056 
493 1 -0.376528 0.502329 0.31274 0.701366 
2004 1 0.448298 0.273301 -0.689876 0.866945 
665 1 -0.571346 0.413049 0.71861 1.0067 
4027 2 1.55247 -1.7106 -0.360579 2.33802 
4050 2 0.183848 0.156351 -0.310449 0.393223 
3030 1 0.429838 0.643823 0.533599 0.94021 
234 1 -0.128059 -0.0537361 -0.0867228 0.16373 
3369 1 -0.087041 -0.13053 -0.171089 0.232133 
3479 2 0.490846 0.473024 -0.212676 0.714082 
1036 1 0.653125 0.232225 0.0499309 0.694978 
3139 1 0.214022 -0.178479 0.185647 0.334851 
3607 2 -0.26909 0.0913012 -0.132816 0.313665 
644 1 0.173724 -0.0363225 0.0656 0.189216 
4217 2 -0.109012 0.0129521 0.410977 0.425387 
245 1 -0.494849 -0.254615 -0.0974177 0.564973 
3007 1 0.139225 0.224564 -1.26015 1.28755 
1278 1 -0.236511 0.526797 -0.216071 0.616554 
4089 2 0.351876 0.0306782 -0.0904571 0.36461 
187 1 -0.222849 -0.258871 -0.0825712 0.351417 
214 1 0.033571 0.0705361 0.184059 0.199951 
199 1 0.115886 -0.134279 -0.0260652 0.179276 
3056 1 0.0190429 -0.0523909 -0.119733 0.132074 
2758 1 0.0827066 0.219988 0.031338 0.237102 
3468 2 -0.438145 -0.275087 0.184771 0.549349 
80 1 -0.293717 -0.0105937 0.265172 0.395851 
127 1 -0.561895 0.708563 -0.424924 0.999174 
4228 2 0.469131 0.798786 0.040972 0.927265 
1648 1 -0.204291 -0.253319 0.764198 0.830604 
479 1 0.20131 0.0781565 -0.307712 0.375927 
3603 2 -0.528519 -0.601081 0.19934 0.824844 
46 1 -0.173227 -0.489868 0.597765 0.792024 
3096 1 -0.319572 0.807271 -0.511335 1.00761 
3701 2 -0.107999 -0.665819 0.519875 0.851616 
181 1 -0.935673 -0.677345 0.455316 1.24161 
1149 1 -0.106566 -0.24329 0.110142 0.287537 
559 1 -0.514419 -0.172219 -0.0916464 0.550169 
240 1 -0.133219 0.396416 -0.0552529 0.421837 
1102 1 0.0951327 0.228011 -0.148985 0.288506 
3003 1 -0.0926059 -0.153593 0.0289216 0.181668 
958 1 -0.453582 0.433777 0.633101 0.891469 
134 1 -0.248175 0.0777377 -0.0903478 0.275312 
312 1 0.63509 0.0409135 -0.0211754 0.636759 
3513 2 0.0473094 -0.120078 0.0665612 0.145215 
587 1 -0.0965788 -0.239753 0.380733 0.460181 
3576 2 -0.531632 2.12403 -1.10824 2.45405 
685 1 -0.0279459 -0.134852 -0.222252 0.261462 
3010 1 -0.0758375 0.366671 -0.0600109 0.37921 
67 1 0.0836432 0.106692 -0.137031 0.192761 
704 1 -0.648126 0.0564779 0.68177 0.942373 
3620 2 -0.916953 1.45 0.914731 1.94423 
3092 1 -0.107129 -0.152882 0.0877059 0.206257 
191 1 -0.659002 0.524521 0.433519 0.947283 
1179 1 -0.709988 0.221787 0.0412474 0.744966 
580 1 -0.225257 -0.0470699 0.0755681 0.242212 
207 1 -0.536455 -0.0974732 -0.23581 0.594047 
733 1 -0.360173 0.303796 -0.341254 0.581782 
4195 2 -0.43871 0.539266 0.348577 0.777676 
657 1 -0.549778 0.368267 -0.464999 0.808765 
4173 2 0.0873139 0.0607712 -0.133239 0.170498 
182 1 -0.587586 -0.0350476 -0.671879 0.893256 
540 1 -0.863179 0.570941 0.281902 1.07262 
920 1 -0.284384 -0.046644 -0.417661 0.507436 
690 1 0.172722 0.137531 -0.289613 0.364175 
3644 2 -0.0251968 0.00885467 0.571516 0.572139 
4269 2 -0.167753 -0.344976 0.715081 0.811474 
131 1 0.328008 -0.434951 -0.274888 0.610193 
2926 1 -0.0124542 -0.00565794 0.036732 0.0391964 
902 1 -0.0658514 0.477198 0.172108 0.511542 
6 1 -0.516462 0.500911 -0.0596201 0.721942 
742 1 0.328581 -0.127967 -0.123353 0.373573 
710 1 0.153844 -0.254652 0.0330634 0.299347 
3974 2 -1.08347 -0.835546 0.439024 1.43693 
3408 1 0.193732 -0.0625399 -0.00837908 0.203748 
3024 1 0.620025 -0.440062 -0.431387 0.874174 
89 1 0.456944 0.551411 1.37111 1.54686 
674 1 0.280993 -0.105441 0.115165 0.321462 
2977 1 0.0372008 0.128274 0.129239 0.185852 
4163 2 -0.595239 -0.553432 0.69961 1.0724 
226 1 0.729869 -0.347676 -0.356223 0.883449 
157 1 0.409429 0.392645 -0.724576 0.920225 
3307 1 -0.723063 -0.25796 0.743999 1.06906 
694 1 -0.0900426 -0.326856 -0.298011 0.45139 
1077 1 0.345111 0.028648 -0.120613 0.366701 
205 1 0.0697804 -0.040548 0.0316235 0.0866804 
3341 1 0.161373 -0.226379 0.590331 0.652517 
861 1 -0.1827 0.246544 -0.0980235 0.322137 
221 1 0.290325 0.140854 -0.0140673 0.322996 
3883 2 -1.19545 -1.545 -0.862659 2.13549 
924 1 0.0239687 -0.312168 -0.101375 0.32909 
2740 1 -0.203192 -0.203369 -0.691854 0.749205 
512 1 -0.243554 0.665535 0.148031 0.723995 
4198 2 -1.2982 -0.0367987 0.0237385 1.29894 
886 1 -0.158418 0.219688 0.160624 0.314896 
286 1 0.0841335 -0.424747 -0.337698 0.549116 
265 1 -0.20467 0.0501537 -0.0117673 0.211053 
364 1 -0.0834683 -0.297814 -0.0466471 0.312788 
635 1 -0.525928 -0.337359 -0.28917 0.688498 
478 1 0.0417492 -0.732865 -0.372362 0.823097 
334 1 0.630632 0.390692 0.23076 0.776908 
3434 1 -0.618118 0.3473 0.352689 0.791881 
3612 2 -1.04622 -1.49771 -0.166326 1.83449 
1145 1 -0.82374 -0.600177 -0.667184 1.21815 
3227 1 1.5048 0.603287 -0.464531 1.68646 
300 1 -0.834279 0.13128 -0.0646519 0.847016 
3389 1 0.154252 0.556135 -0.00474502 0.57715 
362 1 -0.380585 0.209228 0.441275 0.619149 
3588 2 0.553945 -1.95029 -0.326148 2.0535 
780 1 0.678482 -0.117997 0.259611 0.735975 
228 1 -0.147862 -0.934472 0.0467165 0.947251 
3162 1 0.162069 0.0178683 0.124817 0.20534 
3482 2 -0.498914 -0.902741 0.435895 1.11976 
2710 1 0.220664 -0.462507 0.0235382 0.512991 
3313 1 0.049186 -0.339422 0.174642 0.384872 
3333 1 -0.0631792 -0.331612 -0.407221 0.528949 
3526 2 0.437438 -0.663837 0.0862973 0.799675 
3573 2 -0.696882 0.881423 -0.853842 1.41124 
809 1 -0.708399 -0.439581 0.277602 0.878705 
482 1 0.223263 0.295596 -0.277069 0.462591 
4097 2 0.763225 0.476278 -0.444508 1.00346 
626 1 -0.0219391 -0.416008 0.510117 0.658607 
3242 1 -0.263409 0.352729 -0.0527855 0.443383 
3249 1 -0.516733 0.113382 0.0709561 0.533764 
903 1 0.386275 -0.814881 -0.0312759 0.90234 
2873 1 0.358022 -0.664003 0.420518 0.863664 
2838 1 0.0686786 -0.546677 -0.0500907 0.553247 
462 1 0.347779 -0.029355 -0.199902 0.40221 
3483 2 0.260891 -0.738137 1.09626 1.34711 
3582 2 -1.15529 2.31572 0.0751896 2.589 
100 1 -0.433989 0.144879 -0.35157 0.577008 
2966 1 0.0971056 0.288314 -0.389267 0.494048 
750 1 -0.228681 0.823705 0.382169 0.936396 
206 1 0.493076 -0.713457 -1.11125 1.40961 
4239 2 1.20459 1.31151 -0.56026 1.86681 
309 1 0.34398 -0.312767 -0.0748369 0.470899 
3561 2 -0.0535865 0.294233 -0.838559 0.890295 
449 1 0.0809046 0.417775 -0.176868 0.460829 
1285 1 0.158867 0.532528 0.212148 0.594838 
2890 1 -0.0418168 0.4602 0.290258 0.545694 
3409 1 0.00578594 -0.405018 -0.0930816 0.415617 
4318 2 -0.538699 0.125529 0.0187513 0.553449 
3539 2 -0.737102 -0.298316 -0.977426 1.26003 
2479 1 0.0926696 -0.382604 -1.06596 1.13632 
3209 1 0.336027 0.373104 0.0915586 0.510396 
974 1 -1.07938 -0.909154 0.894202 1.67069 
3197 1 0.260272 0.606251 0.474116 0.812446 
356 1 -0.278955 0.00692062 0.399871 0.487607 
373 1 0.496988 0.521295 -0.170461 0.740137 
2732 1 0.484707 0.1565 0.219763 0.554733 
4056 2 -1.56626 -1.45147 -1.52418 2.62355 
4146 2 -2.4111 0.0213972 -0.427613 2.44882 
1212 1 -0.376142 -0.0721953 -0.363097 0.527763 
398 1 -0.41769 0.340905 -0.0759656 0.544474 
836 1 -0.1129 -0.19044 -0.37992 0.439719 
2696 1 0.482056 -0.00262111 0.174076 0.51253 
1304 1 0.231648 0.00840687 -0.0155006 0.232319 
3393 1 0.182122 0.00702372 0.0045289 0.182314 
3404 1 0.944945 0.371686 0.0663585 1.01758 
412 1 -0.386216 0.245331 -0.0232172 0.458137 
394 1 -0.185923 -0.148564 -0.151072 0.281889 
3785 2 -1.41326 -0.951364 0.308566 1.73136 
2052 1 0.243988 0.366845 0.406979 0.599781 
2365 1 0.232384 0.23137 0.0524493 0.332092 
3093 1 -0.787618 0.387727 -0.679021 1.10984 
3319 1 0.302493 -0.312808 0.113892 0.449803 
3360 1 -0.280995 0.205227 0.31332 0.468237 
3324 1 -0.227036 -0.282932 0.214613 0.421491 
457 1 -0.829025 0.35683 0.38914 0.982874 
2745 1 -0.176828 0.213088 -0.00245034 0.276913 
471 1 -0.21185 0.463533 -0.701334 0.866956 
3257 1 -0.0506566 0.477428 -1.17216 1.26667 
951 1 0.493993 -0.357797 -0.307409 0.683043 
306 1 -0.0779718 0.808314 -0.245961 0.848497 
3679 2 -0.300914 -1.71823 2.42381 2.98626 
3150 1 0.912372 2.05682 -1.54076 2.72706 
3379 1 0.613724 -0.198867 0.772689 1.0066 
3337 1 0.504167 -0.779725 0.0329788 0.929109 
411 1 0.690672 0.341516 0.116937 0.779317 
601 1 0.0908649 0.290513 -0.216152 0.373331 
3094 1 0.217428 0.32935 -0.210664 0.447354 
962 1 -0.329352 0.302328 -0.326566 0.553643 
353 1 0.358052 0.104165 -0.189061 0.418086 
3617 2 0.191623 0.143149 -0.116406 0.26601 
71 1 0.343937 0.177955 -0.124497 0.406768 
1313 1 0.870717 -0.720606 -0.10554 1.13515 
2628 1 0.466963 0.452616 -0.582348 0.872951 
3535 2 0.162959 0.224401 -0.19821 0.34088 
3303 1 0.418903 -0.0839851 -0.0398283 0.429091 
4185 2 0.177253 0.0677024 -0.143949 0.238167 
702 1 -0.602432 0.186876 -0.0896044 0.637084 
3022 1 0.81805 0.908269 0.150775 1.23162 
3668 2 -1.63088 0.14887 0.231577 1.65396 
489 1 0.536062 -0.168574 -0.343792 0.658766 
943 1 -0.201659 -0.201083 0.441664 0.525517 
460 1 0.372172 0.304016 -0.206783 0.52316 
3676 2 0.130064 0.396221 0.165789 0.448769 
499 1 0.0733251 0.613242 -0.00931895 0.61768 
2959 1 0.947206 0.0229554 1.32569 1.62947 
4297 2 1.18641 1.62724 -0.0658671 2.01489 
838 1 0.0328678 0.659664 -0.165843 0.680985 
439 1 0.565453 0.939655 -0.27228 1.12997 
388 1 -0.307951 0.767626 0.206995 0.852602 
291 1 0.663788 0.11744 0.251219 0.719387 
1314 1 0.765421 0.30304 0.344811 0.892522 
389 1 0.274817 -0.0200139 -0.0932153 0.290885 
4309 2 -0.31487 -0.63821 0.443258 0.838411 
3301 1 -0.64129 0.115589 0.327663 0.729368 
436 1 0.0141579 -0.385941 0.400665 0.556492 
901 1 -0.142028 -0.455495 -0.0507671 0.479817 
37 1 -1.19732 0.140448 -0.26948 1.23528 
392 1 -0.312618 0.151092 0.311531 0.466487 
792 1 -0.368803 -0.318418 0.623259 0.791112 
3293 1 -0.355694 0.178946 0.319581 0.510561 
1373 1 -1.25306 -1.31021 -0.51301 1.88414 
3095 1 0.0633543 -0.0588693 -0.817257 0.82182 
382 1 0.526653 0.318039 -1.44933 1.5745 
3916 2 -1.54357 -2.30167 -0.672044 2.85165 
3266 1 0.772879 0.255771 -0.444114 0.927361 
318 1 -0.815133 0.875971 -0.886874 1.4894 
3180 1 -0.760888 -0.471992 -0.175734 0.912474 
2771 1 0.856927 -0.930837 0.968273 1.59321 
3314 1 -1.2839 -0.163068 -0.300672 1.32868 
490 1 0.401722 -0.452213 -0.611624 0.860209 
231 1 0.123438 0.780062 0.526231 0.949027 
3368 1 0.763326 -0.826876 -0.402277 1.19508 
4284 2 -0.773815 0.456714 1.13573 1.44819 
614 1 -0.709272 -0.318571 0.693888 1.04213 
3392 1 -1.15249 0.329995 -0.203092 1.21589 
431 1 -0.251718 0.1467 0.475865 0.55797 
2861 1 -1.28432 0.741273 -0.00947251 1.48292 
763 1 0.168923 0.545438 0.232245 0.616422 
423 1 0.0192915 0.145592 -0.306976 0.340299 
3549 2 -0.569219 0.449617 -0.744048 1.03912 
1172 1 0.262352 0.0065749 0.00324445 0.262455 
3568 2 0.255881 0.207779 -0.045145 0.332694 
4271 2 0.284467 0.168133 0.126388 0.353786 
3419 1 0.17263 -0.12147 0.166682 0.268959 
652 1 0.372744 0.0904776 -0.065064 0.389047 
248 1 0.255581 0.0484891 -0.0835119 0.273216 
1409 1 0.224739 0.17422 -0.561229 0.629157 
1252 1 0.681374 -0.471868 -0.272332 0.872408 
908 1 0.0877759 -0.153749 0.54681 0.574756 
325 1 0.3795 0.0266706 -0.0320501 0.381784 
292 1 0.248894 -0.185569 0.031613 0.312063 
3504 2 0.970585 -0.0175079 0.688831 1.19031 
3444 1 -0.0245036 -0.314738 -0.571088 0.652535 
2869 1 -0.0881164 -0.536599 -0.437314 0.697816 
3476 2 0.194111 -0.514729 -2.30063 2.36549 
4143 2 0.961951 -1.09507 -0.0734821 1.45943 
3331 1 0.048828 -0.0143945 -0.45973 0.46254 
4307 2 0.18062 -0.918383 -1.32614 1.62318 
874 1 0.0298728 -0.304474 -0.422323 0.521492 
980 1 0.0470078 -0.328749 0.3302 0.468313 
225 1 0.108691 -0.307384 0.650785 0.727887 
177 1 -0.357432 -0.0445727 -0.459283 0.583682 
3009 1 0.385777 0.30526 -0.111255 0.504366 
4182 2 -0.58509 1.15568 -0.107188 1.29978 
363 1 -0.310088 -0.307333 -0.304623 0.532357 
402 1 0.275622 0.287085 -0.182894 0.43799 
3070 1 0.964317 -1.20448 -0.413214 1.59732 
295 1 -0.538891 -0.586774 -0.243169 0.832969 
2819 1 -0.0609535 -0.32255 -0.478972 0.580662 
2973 1 0.990509 -0.958901 -0.0962343 1.38198 
416 1 0.168399 -0.378851 0.243181 0.480649 
795 1 0.29867 -1.39364 -0.145476 1.43269 
3611 2 0.368881 1.83543 0.565971 1.95581 
964 1 -0.608087 -0.955481 -1.59161 1.95344 
957 1 0.723192 -0.495868 -0.702871 1.1238 
474 1 0.0153992 -0.361838 -1.11335 1.17078 
3291 1 -0.368057 -0.0748328 -0.344057 0.509354 
3524 2 -1.80225 -1.20603 1.02208 2.39734 
3013 1 1.5763 -0.363049 0.00996293 1.61759 
1337 1 0.144726 -0.684339 0.000892912 0.699476 
967 1 -0.332368 0.95908 0.552829 1.15582 
3643 2 -0.0985535 -0.391062 -0.513425 0.652876 
160 1 0.403718 -0.00789137 0.599897 0.723137 
517 1 0.252786 0.158202 -0.123583 0.322802 
2993 1 -0.248395 -0.242645 -0.0913859 0.359065 
279 1 0.573071 0.180272 -0.118897 0.612409 
4285 2 -0.836683 -0.057821 -0.6899 1.08598 
825 1 -0.435892 -0.694759 -0.0586289 0.82227 
783 1 -0.736068 0.41959 0.698352 1.09797 
647 1 0.387134 0.379775 -0.16715 0.567486 
3433 1 0.102568 0.0609664 -0.0540777 0.131002 
917 1 0.0796158 -0.136688 -0.00729119 0.158352 
3322 1 -0.0457354 0.078433 -0.0348278 0.0972442 
274 1 -0.137065 -0.0751716 0.119915 0.197021 
3863 2 -0.341763 -0.0794417 0.126674 0.37304 
1091 1 -0.113764 -0.0650337 0.0661706 0.146799 
3396 1 -0.120462 -0.0904362 0.145302 0.20929 
4028 2 -0.235661 0.262232 0.193452 0.402151 
502 1 0.271413 -0.0479831 0.123007 0.301825 
3674 2 1.21857 -0.435666 0.90424 1.57873 
3420 1 0.586938 -0.197601 -0.745787 0.969403 
3327 1 0.113714 -0.223376 0.0760382 0.261935 
3435 1 -0.0981388 -0.0337233 0.613678 0.62239 
443 1 0.0165161 0.19606 0.116829 0.228826 
2545 1 -0.102351 0.0196414 0.0662621 0.1235 
800 1 -0.251375 0.312176 -0.528836 0.66356 
855 1 0.370614 0.0228505 0.0819237 0.380248 
1418 1 0.504574 0.0830059 0.687899 0.85714 
810 1 -0.0834066 -0.0108354 0.328058 0.338668 
875 1 -0.0947015 -0.297213 0.371491 0.485087 
1450 1 -0.314797 -0.42296 -0.485002 0.716393 
3559 2 -0.193843 -0.5666 -0.327023 0.682315 
4237 2 0.212742 0.323244 -0.531652 0.657571 
440 1 -0.157983 -0.394232 -0.397092 0.581429 
347 1 0.321818 0.0323213 -0.11258 0.34247 
830 1 0.019044 -0.124567 0.232045 0.264054 
442 1 -0.424394 -0.475071 -0.402204 0.753373 
937 1 0.0198851 0.105385 0.245042 0.267483 
1289 1 -0.537056 1.17088 -0.926937 1.58701 
3397 1 -0.611903 -0.46033 -0.179431 0.786464 
501 1 0.0561515 -0.122217 0.178747 0.223697 
107 1 -0.185846 0.269834 0.832941 0.895065 
314 1 0.00917755 -0.0279759 0.0725854 0.0783295 
3799 2 -0.293668 1.21062 0.839274 1.50207 
486 1 0.545658 -0.191792 -1.63172 1.73119 
4152 2 -1.3437 0.868521 -0.851489 1.81243 
183 1 -0.978303 0.0934988 -0.136462 0.99219 
757 1 -0.226032 -0.3612 0.11387 0.441046 
419 1 0.896542 -0.232016 -0.208279 0.94921 
375 1 -0.207974 -0.496713 0.437585 0.693872 
421 1 -0.984296 0.489635 0.295343 1.13834 
866 1 -0.34764 0.614171 0.513909 0.873019 
781 1 -0.0099669 -0.0118855 -0.617054 0.617249 
3200 1 -0.246066 0.361397 -0.0684568 0.442541 
1430 1 -0.356485 -0.579595 0.00736002 0.68049 
822 1 -0.330349 -0.431075 0.00828663 0.543162 
3961 2 1.22187 -2.50591 -0.691256 2.87235 
3278 1 -0.123244 -0.172296 -0.0844043 0.228033 
3219 1 0.557659 -0.706572 -0.650065 1.11032 
819 1 -0.0360431 -0.503147 0.120875 0.518717 
349 1 -0.0449686 0.178253 0.171517 0.251424 
85 1 -0.00552296 0.125055 0.219525 0.252706 
3383 1 0.0297581 0.166061 0.0162573 0.169488 
329 1 -0.269024 0.268147 0.0456934 0.382577 
699 1 -0.180609 0.340414 -0.170518 0.4214 
113 1 -0.146935 -0.0114785 0.16833 0.223733 
3240 1 -0.376179 -0.273631 -0.0872753 0.473289 
504 1 -0.32963 -0.0703186 0.265274 0.428918 
581 1 -0.003747 -0.143543 0.323419 0.353863 
92 1 -0.0527393 -0.741689 -0.639322 0.980621 
2687 1 -0.127995 -0.178523 0.207672 0.302293 
2795 1 -0.177413 0.249593 0.127456 0.331688 
3571 2 -2.40079 -0.540379 -0.933892 2.63211 
393 1 -0.137252 -0.168122 -0.689842 0.723177 
772 1 -0.674071 0.0549671 -0.344535 0.759011 
3541 2 -0.768102 0.537072 -0.286793 0.980142 
786 1 -0.310834 -0.194151 0.243587 0.440053 
3545 2 0.106386 0.390374 -0.902063 0.988649 
308 1 -0.808886 -0.498869 -0.0846088 0.95411 
319 1 -0.0756866 -0.0931927 0.214878 0.246142 
406 1 -1.03655 0.161349 -0.766311 1.29911 
1723 1 -0.849803 -0.22005 0.379503 0.956352 
2814 1 -0.662159 0.0723751 -0.465869 0.812851 
4154 2 -1.69539 0.409455 -0.606846 1.84669 
31 1 -1.17335 0.388578 -0.11765 1.2416 
3678 2 -0.495692 0.235335 -0.103966 0.558482 
968 1 -0.118006 -0.146372 0.034395 0.191137 
4109 2 -0.393132 0.104 1.17804 1.24625 
1254 1 -0.07764 -0.422372 0.132357 0.449383 
491 1 -0.216912 0.10912 -0.0361553 0.24549 
2656 1 0.0997461 -0.0364393 0.248261 0.27002 
801 1 -0.121683 0.0642471 0.0783528 0.158347 
461 1 0.0680869 0.0153497 0.226797 0.237294 
4098 2 0.272017 -0.132622 0.363549 0.473022 
3436 1 -0.293 -0.603058 0.0112206 0.670563 
793 1 0.71475 -0.367873 -0.603838 1.00539 
3378 1 0.112977 -0.0596319 0.253378 0.283761 
899 1 -0.0075552 -0.146336 0.206721 0.253387 
3371 1 0.0633054 -0.160006 -0.201709 0.265134 
2884 1 0.562568 -0.434956 -0.196185 0.73767 
3339 1 -0.205864 0.504761 -0.749773 0.926997 
307 1 -0.0862158 -0.343045 -0.636777 0.728422 
3192 1 0.837434 0.267534 -0.266476 0.91863 
3944 2 0.297082 0.437828 0.108653 0.540145 
268 1 0.0611605 0.657866 0.721111 0.978023 
328 1 0.0498288 -0.194634 0.344687 0.398967 
1367 1 -0.475586 0.551768 -0.448029 0.855195 
2776 1 0.121855 -0.204227 -0.418483 0.481338 
840 1 -0.0289559 0.081524 -0.0384981 0.0946927 
907 1 -0.104561 0.00579281 -0.193283 0.219829 
606 1 0.332991 -0.714154 -0.219206 0.817894 
1641 1 -0.224723 0.344417 -0.148406 0.437205 
3586 2 0.468962 0.633933 0.226112 0.820319 
128 1 -0.312902 -0.234099 0.662449 0.769122 
1544 1 -0.305375 0.138851 0.11409 0.354331 
1569 1 -0.334725 0.611216 -0.188609 0.721941 
1535 1 -0.0210506 -0.0960969 0.219545 0.240578 
522 1 0.232292 0.450999 0.294532 0.586608 
631 1 0.0506122 0.157095 0.110545 0.198647 
683 1 0.0396583 0.0609736 0.313264 0.321597 
3600 2 0.143809 0.185908 -0.748033 0.784089 
3533 2 -0.818332 -1.52302 -2.07075 2.69764 
1160 1 -0.00707887 -0.0967817 -0.592305 0.600202 
4273 2 -1.24712 -1.63666 -1.70129 2.66989 
573 1 -0.225913 0.715592 -0.156914 0.766636 
1474 1 0.116321 0.380471 0.185966 0.439172 
3844 2 -0.0413458 0.692346 0.0502609 0.695398 
565 1 -0.728128 0.0327604 -0.234641 0.765702 
4319 2 -0.310246 -0.841718 -0.0100474 0.89713 
577 1 -0.0716274 0.242316 0.212393 0.330088 
3616 2 -0.637929 0.355773 0.537623 0.906955 
3173 1 -0.54597 0.22099 0.242522 0.636975 
69 1 -0.209675 0.186989 0.248136 0.374833 
3418 1 0.12951 0.377641 0.311665 0.506478 
2057 1 -0.301666 0.379238 0.0884695 0.492596 
1053 1 -0.140078 -0.907304 -0.366613 0.988548 
621 1 -0.182483 0.335946 -0.287523 0.478361 
555 1 -0.105661 0.373905 0.025488 0.389383 
1083 1 0.660924 -0.596925 -0.529835 1.03627 
65 1 0.78506 -1.32931 -0.559904 1.64222 
655 1 -0.5832 -0.0121499 -0.587713 0.828056 
137 1 -0.107408 -0.273646 0.408043 0.50291 
617 1 0.372748 0.260613 -0.762023 0.887434 
401 1 -0.242607 0.171656 0.359458 0.466405 
740 1 -0.148678 0.112254 0.180606 0.25947 
3572 2 -0.0436448 0.209448 0.484358 0.529505 
1118 1 0.762792 -0.684338 0.807012 1.30439 
266 1 1.06565 -0.123609 -0.0231083 1.07304 
1093 1 0.467442 1.05366 0.531491 1.26933 
1217 1 0.0638151 0.278005 0.171892 0.333025 
3063 1 0.148142 0.171716 -0.15547 0.27496 
739 1 -0.23392 0.133919 0.0882096 0.283609 
52 1 0.706912 -0.079224 0.396316 0.81429 
1612 1 -0.08326 0.488185 0.172853 0.524534 
959 1 -0.361919 0.0851283 0.0812837 0.380578 
50 1 0.62297 -0.051289 0.143003 0.641227 
289 1 0.292091 0.389985 0.0993067 0.497259 
4116 2 0.614281 1.34175 0.0123677 1.47573 
708 1 -0.0779091 -1.33587 -0.318778 1.37559 
1934 1 0.479757 -0.37046 0.246113 0.654201 
1412 1 0.324026 0.343319 0.0187301 0.472452 
3957 2 -0.715197 -1.03151 -0.254858 1.28081 
469 1 -0.232517 -0.00634984 0.164636 0.284972 
627 1 0.0174683 0.356571 -0.356195 0.504305 
712 1 0.60382 -0.217523 -0.429681 0.77236 
3589 2 0.200414 0.0667974 0.403298 0.455277 
3778 2 -0.0751696 0.402346 0.0135401 0.409532 