ITEM: TIMESTEP
620000
ITEM: NUMBER OF ATOMS
4320
ITEM: BOX BOUNDS pp pp pp
0.0000000000000000e+00 1.9309999999999999e+01
0.0000000000000000e+00 1.9309999999999999e+01
0.0000000000000000e+00 9.6549999999999994e+00
ITEM: ATOMS id type c_displacement[1] c_displacement[2] c_displacement[3] c_displacement[4] 
381 1 -0.143661 -0.297501 0.0549661 0.334913 
2478 1 0.291111 -0.420954 0.668673 0.842064 
3196 1 -0.202376 -0.234983 -0.292132 0.426045 
817 1 -0.0776152 -0.103674 -0.14623 0.195335 
303 1 -0.145427 -0.81962 -0.326543 0.894179 
171 1 0.749228 -1.08156 -0.870584 1.57767 
2936 1 -0.276242 0.516969 -0.11114 0.596589 
677 1 0.127784 -0.152709 0.247949 0.318006 
87 1 0.435015 -0.117753 -1.04314 1.13633 
3230 1 0.203685 -0.0524174 0.124055 0.244182 
3651 2 0.245232 -0.203489 0.113722 0.338347 
2939 1 0.206294 -0.157765 1.13905 1.16829 
66 1 0.168152 -0.00643606 -0.0199443 0.169453 
3512 2 0.465094 -0.8824 0.357455 1.05958 
3189 1 -0.0607264 0.349351 -0.430611 0.557817 
3199 1 -0.0314771 0.197084 0.0771957 0.213991 
1178 1 0.0599696 -0.314577 -0.0774723 0.32948 
3841 2 0.526117 0.7001 -0.387825 0.957783 
727 1 0.152441 -0.0833713 0.0518778 0.18133 
688 1 0.391184 0.093333 0.246722 0.471813 
58 1 0.310397 -0.0432348 0.255082 0.404082 
190 1 -0.0368196 -0.389027 -0.0222364 0.391398 
18 1 -0.0954829 -0.36547 0.0589833 0.382314 
3514 2 0.348266 -0.196074 0.0512259 0.402937 
4177 2 -0.227291 -0.143683 -0.25671 0.371761 
80 1 -0.282117 -0.0466499 0.357908 0.45811 
1215 1 0.0113988 0.474341 0.310319 0.566946 
217 1 0.360898 -0.202157 0.0425521 0.415843 
775 1 0.451902 -0.267459 0.165824 0.550679 
823 1 0.568702 -0.785787 -0.333193 1.02562 
608 1 -0.229397 0.0784371 -0.555715 0.606295 
4170 2 -0.125423 -1.01276 -0.926268 1.37818 
28 1 0.188526 0.225104 -0.389036 0.487404 
255 1 0.0902891 -0.554364 -0.260962 0.619332 
7 1 0.0551559 -0.70412 0.00331272 0.706285 
180 1 0.24837 -1.13892 0.922179 1.48635 
129 1 0.884961 -0.525517 0.063625 1.0312 
389 1 0.224447 -0.368253 0.0624488 0.43576 
121 1 1.01556 -0.205624 -0.0318102 1.03666 
562 1 0.792521 -0.144415 -0.163403 0.821976 
2453 1 -0.351642 0.223355 -0.871892 0.9663 
70 1 1.08391 0.391987 0.248992 1.1792 
3627 2 0.929026 1.59217 0.508181 1.91216 
232 1 0.310472 0.242021 -0.174868 0.43075 
215 1 -0.19 -0.253935 0.153148 0.352189 
233 1 -0.0407041 1.58205 0.178063 1.59256 
473 1 0.0312863 -0.334123 -0.0580251 0.340565 
246 1 0.473898 0.218389 -0.0289451 0.5226 
4214 2 0.1522 0.793774 -0.17081 0.826086 
3808 2 -0.0213358 -0.442684 -1.18362 1.26388 
3393 1 -0.00827727 -0.395821 -0.0244985 0.396664 
559 1 -0.345028 -0.0814499 -0.0428805 0.357096 
3455 1 1.5566 0.234261 1.3274 2.0591 
484 1 1.29732 -0.252493 1.11347 1.72818 
3135 1 0.190915 0.517742 -0.367131 0.66279 
197 1 0.408371 0.500814 -0.382299 0.750822 
4225 2 0.605789 1.04732 -0.872333 1.49158 
4071 2 -1.24055 0.5832 1.10446 1.76038 
351 1 0.168601 -0.1435 0.204637 0.301487 
2945 1 0.45711 -0.358361 1.70646 1.80261 
4053 2 1.55268 -0.424541 0.632844 1.72961 
2983 1 0.794671 -0.225788 0.0654426 0.828713 
527 1 0.234848 -0.281827 -0.000471838 0.366851 
1415 1 0.0511441 -0.328425 0.0586047 0.33751 
3002 1 0.644493 0.108345 -0.624534 0.903965 
894 1 0.384776 1.3595 0.331162 1.45119 
716 1 -0.238172 -0.465279 0.176384 0.551654 
110 1 -0.0748714 -0.20491 0.47172 0.519724 
93 1 0.306985 -0.229645 -0.162546 0.416411 
639 1 -0.160569 -0.341719 0.22197 0.437978 
3353 1 -0.276259 -0.57646 0.835189 1.05174 
569 1 0.155743 -0.333885 0.431784 0.567603 
718 1 0.0180456 1.12925 0.134126 1.13733 
2056 1 1.31716 -0.654892 0.246627 1.49151 
106 1 -0.44716 -0.628795 0.789151 1.10367 
118 1 -0.275072 -0.511387 0.301674 0.654361 
2596 1 -0.288474 -0.16309 -0.317914 0.459221 
3055 1 -0.0311156 0.185243 -0.254801 0.316554 
2495 1 0.211286 -0.157622 -0.124443 0.2915 
3152 1 0.172899 0.0779285 -0.625441 0.653562 
3835 2 0.425947 0.743203 0.419585 0.953852 
3232 1 -0.0475285 0.28146 -0.701688 0.757525 
3712 2 0.346529 0.146005 0.708126 0.801774 
12 1 0.161968 0.367336 -0.489418 0.633008 
738 1 0.245681 0.264948 -0.625207 0.722109 
339 1 -0.600926 -0.514186 -0.365544 0.871276 
3167 1 0.0211944 0.0524658 -0.0653509 0.0864443 
1271 1 -0.603739 0.400767 -0.41968 0.837404 
317 1 0.413961 0.430666 0.11438 0.60821 
4289 2 -0.139085 -0.192201 -0.790004 0.824859 
210 1 0.58743 0.303717 0.316569 0.733167 
568 1 0.463649 0.363412 0.438563 0.734422 
3632 2 -0.00523984 -0.111644 -0.0172497 0.11309 
390 1 0.0619366 0.188742 0.143387 0.244989 
3244 1 0.153243 0.00947357 0.161648 0.222942 
3346 1 -0.273792 0.0527369 -1.07791 1.11339 
4278 2 -0.550139 0.106664 0.30548 0.638238 
2961 1 -0.459232 0.402967 0.143789 0.627656 
3578 2 0.597472 -0.038256 0.727557 0.942218 
4256 2 -0.402653 1.48988 -1.27426 2.0014 
29 1 0.0412038 0.301845 -0.224112 0.378199 
553 1 -0.450399 0.950772 -0.732925 1.28219 
753 1 0.00466596 -0.0685429 0.217601 0.228188 
3251 1 0.104072 0.198259 -0.446626 0.499612 
3467 2 -0.0490181 0.691377 0.235738 0.732104 
623 1 0.0508167 0.0735426 0.136321 0.163016 
2960 1 -0.175556 -0.0847575 -0.195426 0.276035 
3463 2 -0.131469 0.403632 -0.427484 0.60245 
53 1 0.694129 0.0778768 -0.181971 0.721799 
2735 1 0.558435 0.635041 0.247142 0.881025 
96 1 -0.141733 -0.382632 0.56001 0.692898 
437 1 0.91057 0.400465 0.0412153 0.995594 
725 1 0.703219 -0.262807 0.745667 1.05811 
3040 1 -0.0624565 0.263231 0.693506 0.744407 
3024 1 0.824695 -0.578181 -0.0956343 1.01171 
4197 2 1.28431 1.21169 0.0160965 1.76576 
167 1 0.168032 0.134754 0.367769 0.426202 
550 1 0.176198 -0.319838 0.576516 0.682431 
21 1 0.0119732 -0.775487 0.867315 1.16351 
3149 1 0.143807 0.522778 0.363995 0.653046 
3786 2 0.0192205 -0.463664 -0.744669 0.877432 
147 1 0.626877 0.107115 -0.46744 0.78927 
3877 2 0.0637169 -1.44279 -0.183063 1.45575 
3478 2 0.91161 0.227931 -0.0488764 0.940943 
2591 1 0.0890575 0.109282 -0.317211 0.347126 
4169 2 -0.619625 0.0341242 -0.594685 0.859506 
610 1 -0.0374143 1.67023 0.00128173 1.67065 
5 1 0.169449 0.516486 0.0898229 0.550944 
821 1 -1.02461 0.0826361 -1.20284 1.58224 
859 1 -0.0155617 0.174416 -0.230738 0.28966 
3730 2 -0.0150693 0.114784 -0.0701656 0.135373 
988 1 -0.0313058 0.209347 -0.120567 0.243603 
151 1 -0.270865 -0.212498 -0.112989 0.362339 
536 1 0.13003 -0.253215 0.245434 0.37585 
43 1 0.0247235 0.0722579 -0.0946664 0.121631 
103 1 -0.507659 0.558914 -0.659077 1.00224 
2461 1 0.0799593 -0.00552241 -0.0927129 0.122555 
23 1 -0.0103814 0.05488 -0.0693112 0.0890148 
3023 1 0.0553946 0.309127 -0.0523705 0.318387 
327 1 0.393699 -0.222787 -0.132594 0.471396 
323 1 -0.827475 0.301418 0.506456 1.01591 
424 1 0.0176879 0.205981 -0.174662 0.270643 
3743 2 -0.323176 0.329376 -0.70994 0.846727 
3006 1 0.458326 0.10519 0.339483 0.57998 
546 1 0.0276142 0.491807 -0.0181021 0.492914 
50 1 0.417557 0.136394 0.141783 0.461584 
400 1 0.0979808 -0.821285 -0.567582 1.00312 
532 1 -0.623936 0.0160917 -0.142442 0.640191 
226 1 0.587763 -0.365507 -0.340785 0.771489 
298 1 0.193077 0.0370272 -0.313761 0.370264 
158 1 -0.107037 0.155265 -0.588166 0.61766 
155 1 -0.0976472 -0.0198953 -0.186606 0.211548 
3188 1 0.166363 0.505294 0.312777 0.617113 
691 1 0.210833 -0.6233 0.189743 0.684803 
3464 2 -0.538767 -1.17128 -0.305751 1.32501 
4257 2 1.91557 0.985957 0.605098 2.23778 
1487 1 -1.58566 -0.252035 -0.564304 1.70185 
593 1 -0.0101338 0.729452 0.963469 1.2085 
140 1 -0.398225 0.0457923 0.359425 0.538392 
343 1 0.485137 0.159038 -0.720579 0.883111 
3491 2 0.588124 -0.109693 0.546691 0.810428 
529 1 0.120426 -0.0708112 -0.176579 0.22516 
1480 1 -0.0536597 -0.276771 0.663561 0.720968 
4094 2 1.03155 -1.5251 -0.82444 2.01736 
609 1 -0.165131 0.523495 0.791686 0.96337 
1331 1 -0.223266 0.190249 0.347663 0.454876 
40 1 0.351272 -0.423605 0.0810739 0.556243 
759 1 -0.155867 -0.404093 -0.631583 0.765822 
551 1 -0.139431 -0.0241596 0.189025 0.236125 
3010 1 0.0324296 0.403892 0.0893023 0.414916 
131 1 0.0806806 -0.474143 -0.127648 0.497609 
211 1 0.342674 -0.29644 -0.00992807 0.453212 
98 1 0.690422 0.830879 0.721054 1.29883 
3041 1 -0.0168643 -0.00323421 0.555286 0.555551 
604 1 -0.651888 0.135317 0.211782 0.698656 
1130 1 0.519432 1.17341 0.311134 1.32042 
4228 2 0.437563 0.942906 0.102348 1.04451 
89 1 0.30421 0.51598 1.33212 1.46059 
479 1 0.19968 0.216947 -0.241928 0.381402 
193 1 0.272572 -0.0397673 0.148297 0.31284 
2996 1 0.000967409 0.375078 -0.118628 0.393391 
4212 2 -0.178446 0.655958 0.147785 0.695675 
3164 1 0.0944909 0.840945 0.109238 0.853259 
3118 1 0.161289 -0.553846 -0.591728 0.826378 
3279 1 0.336229 0.0469838 -0.201393 0.394737 
78 1 -0.0155676 0.162613 -0.00271884 0.163379 
4050 2 0.267936 0.330235 -0.540685 0.687884 
2981 1 -0.286831 0.392025 -0.549936 0.733747 
338 1 -0.0988106 -0.0541253 -0.214152 0.24198 
4101 2 0.134791 0.238806 -0.316081 0.418455 
3216 1 -0.10313 0.323918 -0.161339 0.376283 
3477 2 0.526608 -0.733852 -0.810554 1.21361 
234 1 0.00361648 0.0056265 -0.381233 0.381292 
237 1 -0.267289 0.52162 -0.27769 0.64857 
600 1 -0.261398 0.487454 0.0693138 0.557445 
747 1 -0.663646 -0.0755717 0.546953 0.863305 
1149 1 0.0722348 -0.26478 0.183865 0.330352 
216 1 -0.0147735 -0.223353 0.314482 0.38601 
3736 2 -0.08985 -0.167358 -0.754926 0.778457 
387 1 0.0692968 0.0354745 0.117677 0.141097 
379 1 -0.700184 -0.4012 0.294493 0.859038 
1457 1 -0.124539 0.0400619 -0.0525786 0.140994 
4253 2 -0.0854187 -0.153205 0.202756 0.2681 
640 1 -0.0511226 0.174582 -0.746806 0.768643 
3037 1 -0.232943 0.278404 -0.0121846 0.363207 
2977 1 -0.0420299 -0.0743699 0.0577231 0.103099 
2500 1 0.226746 -0.0620314 0.317264 0.394865 
3130 1 -0.403718 -0.219369 0.444442 0.639249 
3544 2 0.110625 1.16865 -0.0998339 1.17811 
3537 2 -0.483514 0.223336 -0.178773 0.561805 
174 1 -0.470361 -0.0647499 0.574697 0.745459 
3394 1 -0.909094 -0.230149 -0.0112744 0.937842 
508 1 -0.528124 -0.0177018 0.658272 0.844127 
2931 1 -0.22996 -0.172343 0.907026 0.951462 
717 1 -0.688057 0.140638 0.985263 1.20994 
248 1 0.104111 -0.161072 0.158383 0.248734 
580 1 -0.314283 -0.26042 -0.126818 0.427405 
2494 1 0.245656 -0.642318 0.106265 0.695853 
133 1 0.46393 0.307736 0.110084 0.567495 
3634 2 0.261803 0.30923 2.59656 2.62798 
3411 1 -0.532578 0.220621 0.511731 0.770832 
3057 1 0.28117 0.582716 -0.501434 0.818566 
835 1 -0.291938 0.648484 0.0200863 0.711451 
127 1 -0.384714 0.85584 -0.342121 0.998756 
64 1 -0.992245 -0.507459 0.279482 1.14899 
721 1 0.875387 -0.202377 0.620056 1.09166 
86 1 0.652515 0.667828 -0.399406 1.01553 
241 1 -0.507273 0.2447 1.44105 1.5472 
204 1 -0.379345 -0.39804 -0.314906 0.633644 
254 1 -0.298238 0.19187 -0.429443 0.55694 
178 1 0.152364 0.228789 -0.122475 0.300931 
3576 2 -0.294328 2.08206 -0.94595 2.30574 
2988 1 -0.371952 -0.108012 -0.754283 0.847914 
493 1 -0.263977 0.651824 0.312108 0.769396 
3030 1 0.402298 0.619324 0.421565 0.850366 
2004 1 0.42365 0.471408 -0.873133 1.07892 
665 1 -0.480387 0.66631 0.601268 1.01797 
4027 2 1.54328 -1.28416 -0.29933 2.02987 
67 1 0.0010739 0.136002 -0.0148267 0.136812 
6 1 -0.72329 0.391165 -0.0156831 0.822438 
3369 1 -0.0635764 -0.0828036 -0.182905 0.2106 
3479 2 0.640538 0.425189 -0.554101 0.947682 
1036 1 0.678651 0.1959 -0.0426415 0.707645 
3139 1 0.166789 -0.284423 0.187903 0.379503 
3607 2 -0.162987 0.11014 -0.0821642 0.213182 
644 1 0.0460835 -0.285816 -0.165809 0.333627 
1278 1 -0.278444 0.160503 -0.114226 0.341086 
3007 1 0.00241667 0.264188 -1.15096 1.18089 
245 1 -0.548118 -0.359161 -0.022523 0.655696 
22 1 -0.0557676 0.554825 -0.100556 0.566614 
4217 2 -0.174143 0.247549 0.509964 0.593017 
3644 2 -0.0538555 0.0868599 0.598518 0.607181 
187 1 -0.500194 -0.37808 -0.0776676 0.631799 
214 1 -0.00172873 0.120904 0.390852 0.409128 
199 1 -0.161914 -0.0669445 0.0447341 0.180828 
3056 1 -0.118039 -0.130352 0.246205 0.302559 
2758 1 -0.242075 -0.127803 0.241028 0.36473 
3468 2 -0.354598 -0.564748 0.32369 0.741252 
4089 2 0.0730692 0.129777 0.167562 0.224183 
2968 1 -0.238917 -0.683717 -0.107363 0.732173 
2684 1 0.238279 -0.769992 -0.243085 0.841876 
3603 2 -0.464799 -0.766513 0.189402 0.916217 
46 1 -0.130625 -0.433477 0.73443 0.862759 
3096 1 -0.190652 0.78834 -0.409423 0.908545 
3701 2 0.0903062 -0.534854 0.500804 0.73826 
181 1 -0.898166 -0.666809 0.25296 1.14688 
240 1 0.0240185 0.286921 -0.0571039 0.293533 
2950 1 -0.992226 -0.629568 -0.447379 1.25738 
675 1 -0.467689 -0.313975 -1.65644 1.7496 
1102 1 0.256152 0.270493 -0.247558 0.447286 
958 1 -0.445917 0.483605 0.719422 0.974825 
134 1 -0.0318411 -0.00378426 0.168565 0.171587 
312 1 0.651027 0.0369654 0.0414704 0.653393 
3513 2 0.284208 -0.218716 0.165501 0.39497 
587 1 0.221601 -0.170144 0.56221 0.627803 
1991 1 0.105341 -1.49196 0.338584 1.53352 
330 1 -0.432274 0.893568 -0.4118 1.07466 
3408 1 0.0959229 -0.139812 0.0931499 0.193457 
3003 1 0.0569621 -0.373571 0.083315 0.386964 
704 1 -0.436249 0.136824 0.765076 0.891277 
685 1 0.210607 -0.234912 -0.0399384 0.318016 
3620 2 -0.951386 1.35358 1.16054 2.02093 
3092 1 0.0281258 -0.084639 0.207609 0.225957 
191 1 -0.528566 0.39228 0.601327 0.891549 
1179 1 -0.52054 0.138544 0.220581 0.582075 
733 1 -0.362605 0.359958 -0.220766 0.556588 
354 1 -0.0734359 -0.122584 -0.0530414 0.152424 
4195 2 -0.335184 0.641107 0.333132 0.796457 
657 1 -0.419562 0.395511 -0.281088 0.641461 
4173 2 0.361824 0.317404 -0.150514 0.504297 
182 1 -0.436908 -0.00153464 -0.544229 0.697908 
540 1 -0.833922 0.406819 0.204137 0.950052 
920 1 -0.190794 0.0532523 -0.362233 0.412857 
690 1 0.261938 0.137463 -0.405166 0.501665 
3518 2 -0.40625 0.0945982 0.0884385 0.426391 
95 1 -0.138256 -0.179291 0.389292 0.450343 
4269 2 -0.404015 -0.141723 0.794982 0.902945 
902 1 0.0539921 0.480505 -0.0267031 0.484266 
710 1 0.0120857 -0.301842 0.0458659 0.305546 
742 1 0.332081 0.0725225 -0.273088 0.436021 
2926 1 -0.204299 -0.119989 -0.0290906 0.238709 
3608 2 0.115336 0.112565 0.0728995 0.176883 
44 1 0.203488 0.186934 0.333092 0.432784 
3599 2 0.0677877 0.666618 -0.454136 0.809453 
185 1 0.436015 -0.0808261 0.0872029 0.451936 
3383 1 -0.163676 -0.19216 0.0229171 0.253457 
1133 1 0.492207 0.0935669 0.0425976 0.502829 
602 1 -0.267369 -0.00192001 0.493409 0.561197 
694 1 -0.129252 -0.579642 -0.0609655 0.596999 
861 1 -0.434928 -0.20435 -0.0181502 0.480885 
1077 1 -0.00563809 -0.494045 -0.00143167 0.494079 
3341 1 -0.119711 -0.371974 0.603093 0.718622 
205 1 -0.146505 -0.486225 0.0777661 0.513737 
462 1 0.168361 -0.013427 -0.0568064 0.178193 
3390 1 -0.962471 0.302226 0.208307 1.03009 
3546 2 -0.370108 -0.620831 -1.87481 2.00931 
3549 2 -0.656121 1.11142 -0.288285 1.32244 
2740 1 -0.122223 -0.671984 -0.764576 1.02522 
512 1 -0.163283 0.527428 0.0148906 0.552326 
3883 2 -1.30244 -1.51543 -0.689115 2.1137 
1145 1 -0.693822 -1.14231 -0.711922 1.51429 
300 1 -0.976908 0.113254 -0.00749054 0.983479 
286 1 -0.0787124 -0.345703 -0.388099 0.525668 
886 1 -0.535138 -0.295071 0.128292 0.624419 
221 1 0.383309 0.21612 0.00621097 0.440082 
364 1 -0.0445576 -0.420885 -0.176044 0.45839 
635 1 -0.551199 -0.407797 0.0254067 0.686122 
478 1 0.165494 -0.771923 -0.117555 0.798168 
334 1 0.646189 0.0908762 0.313295 0.723859 
3612 2 -0.16406 -0.505698 0.258849 0.591311 
411 1 0.621765 0.0572435 -0.196415 0.654559 
4264 2 -0.391076 -0.43357 -0.62654 0.856432 
3389 1 -0.0319384 0.238955 0.192888 0.308748 
362 1 -0.433415 -0.1405 0.364739 0.58363 
2696 1 -0.108673 -0.154938 -0.3028 0.357076 
265 1 -0.1725 -0.123339 -0.120053 0.243684 
3482 2 -0.863167 -0.80651 0.432663 1.25806 
4297 2 0.474746 1.27338 -0.639714 1.50203 
780 1 0.379424 -0.199382 -0.0386054 0.430355 
2710 1 -0.135978 -0.0145485 0.0415783 0.142935 
3313 1 -0.0265049 -0.0499988 -0.158094 0.167917 
3333 1 -0.151751 -0.108375 -0.626435 0.653601 
3573 2 -0.277231 0.538969 -0.86749 1.05824 
809 1 -0.724453 -0.263155 0.222222 0.802163 
2965 1 -0.303455 -0.110962 0.47828 0.577191 
2365 1 -0.0234822 0.297663 -0.186337 0.35196 
228 1 -0.157701 -0.726294 -0.108191 0.751051 
951 1 0.41731 -0.251135 -0.416388 0.640777 
3249 1 -0.589017 0.220364 -0.000784579 0.628889 
903 1 0.105545 -0.620896 -0.348681 0.719882 
2838 1 -0.0317796 -0.617296 -0.362617 0.716628 
626 1 -0.0875852 -0.412769 0.241287 0.486075 
728 1 0.129111 -0.274965 0.287967 0.418569 
3409 1 -0.0706684 -0.574178 -0.19954 0.611956 
471 1 -0.102105 0.263391 -0.637349 0.697147 
2966 1 -0.226724 -0.0479484 -0.384163 0.448647 
750 1 -0.554514 0.726453 0.535704 1.05934 
206 1 0.422885 -0.450761 -0.783144 0.997663 
3162 1 0.0618788 0.177058 0.00695645 0.187689 
421 1 -0.648483 0.11111 0.529968 0.844832 
3022 1 0.668735 0.699681 0.242287 0.997729 
763 1 0.0789574 0.292671 0.142632 0.335014 
3539 2 -0.946793 -0.124178 -1.12496 1.47559 
449 1 -0.122456 0.192389 -0.0812928 0.242111 
1285 1 -0.127317 0.254338 0.139783 0.316917 
2890 1 -0.105684 0.220093 0.336816 0.415999 
3561 2 -0.23837 0.314435 -0.854537 0.941235 
436 1 -0.216313 -0.0577147 -0.386017 0.446242 
3209 1 0.0993124 0.422526 0.152118 0.459925 
356 1 -0.341172 -0.518798 0.188349 0.648864 
3197 1 0.11491 0.241863 0.292375 0.396466 
974 1 -1.40849 -0.985981 1.07589 2.02819 
373 1 0.191099 0.330526 -0.477564 0.611419 
2732 1 0.900156 0.0944283 -0.193297 0.925506 
4318 2 -0.314277 0.218573 0.343389 0.514257 
4056 2 -1.08196 -0.875734 -1.19143 1.83222 
2479 1 -0.271013 -0.105162 -0.602257 0.668745 
4146 2 -2.39203 0.404824 -0.337722 2.44944 
966 1 -0.120408 -1.44325 0.754609 1.63306 
1212 1 -0.359224 0.135265 -0.3214 0.500635 
3404 1 0.732463 0.378818 0.0583088 0.826683 
836 1 -0.0897565 -0.406793 -0.397253 0.575628 
398 1 -0.499153 0.376001 0.132881 0.638896 
412 1 -0.54435 0.323305 0.00798641 0.633172 
394 1 -0.0528302 -0.133286 -0.38286 0.408825 
3434 1 -0.613567 0.137154 0.275602 0.686464 
901 1 -0.11344 -0.280079 -0.263105 0.400671 
3368 1 0.777102 -0.752134 -0.423421 1.16141 
306 1 0.0165009 0.52333 -0.453466 0.69266 
3582 2 -1.32178 2.23589 0.16714 2.60274 
3392 1 -1.37841 0.344193 -0.354922 1.4644 
3093 1 -0.656176 -0.218694 -0.735438 1.00959 
3319 1 0.0872673 -0.22241 0.10427 0.26068 
3360 1 -0.1029 0.477867 0.181117 0.521295 
2745 1 -0.380009 -0.197837 -0.0392223 0.430215 
3785 2 -0.885109 -0.523742 0.533284 1.1585 
3324 1 -0.192205 -0.047772 -0.00961451 0.198286 
3679 2 -0.734175 -1.60667 1.42011 2.26652 
3678 2 -0.452772 0.099631 0.262838 0.532928 
3483 2 0.392936 -0.271 0.425041 0.639139 
2959 1 0.531238 -0.601235 0.599119 1.00132 
3379 1 0.247621 -0.406624 0.780771 0.914474 
3337 1 0.151686 -0.58823 -0.207276 0.641862 
3150 1 0.608888 2.00472 -1.78494 2.75239 
1373 1 -1.18627 -1.00867 -0.9287 1.81305 
2776 1 -0.0413282 0.274025 -0.637546 0.695171 
601 1 -0.0243364 0.242419 0.0648765 0.252128 
3227 1 1.70331 0.575615 -0.71791 1.93598 
3617 2 0.0979873 0.0306605 0.0813327 0.130983 
353 1 0.118544 0.116227 0.0799773 0.184276 
71 1 0.265417 0.0816003 0.0122352 0.277947 
1313 1 0.93175 -0.508292 0.328363 1.11101 
4185 2 0.319813 -0.142709 0.00368776 0.350228 
2628 1 0.32679 0.379955 -0.616902 0.794812 
489 1 0.564302 -0.326086 -0.219588 0.687741 
100 1 -0.101203 -0.0627431 -0.166887 0.205012 
2973 1 0.69265 -0.445229 -0.672317 1.06302 
3676 2 0.00134392 0.329179 0.144867 0.359648 
838 1 -0.115222 0.448718 -0.0914902 0.472223 
943 1 -0.295812 -0.386362 0.535529 0.723582 
460 1 0.381492 -0.0134767 -0.159637 0.413766 
499 1 -0.0730035 0.345487 0.0465191 0.356167 
1367 1 -0.251119 0.56033 -0.405765 0.735986 
3266 1 0.773878 0.607562 -0.678607 1.19521 
439 1 0.552367 0.355909 -0.308098 0.725744 
388 1 -0.48523 0.675441 0.481495 0.960992 
291 1 0.49639 -0.0311247 0.172297 0.526363 
4109 2 -0.633156 0.0316976 -0.0446679 0.63552 
1314 1 0.597837 -0.0352972 -0.0499402 0.600957 
375 1 -0.40401 -0.164556 0.0402891 0.438093 
94 1 0.0119909 0.394186 -0.895125 0.978148 
2737 1 -0.0402288 -0.285141 0.906102 0.95076 
309 1 0.413644 -0.359863 -0.260257 0.606907 
3682 2 -1.74953 1.48053 -1.32746 2.64858 
3301 1 -0.312283 0.399197 -0.0293182 0.50768 
37 1 -0.615907 0.0621002 -0.0795006 0.624114 
4309 2 0.00112066 -0.0714314 -0.0155405 0.073111 
392 1 -0.235513 0.447584 -0.0215617 0.506224 
3293 1 -0.397364 0.265347 -0.0426435 0.479714 
792 1 -0.409125 -0.0160615 0.242022 0.475622 
3242 1 -0.298326 0.279613 -0.168578 0.442267 
3668 2 -1.51424 -0.0223908 0.344603 1.55312 
457 1 -0.422964 0.859937 0.145818 0.969357 
382 1 0.540514 0.574774 -1.94104 2.09527 
3314 1 -1.29017 0.111228 -0.413477 1.35936 
318 1 -0.922557 1.12159 -1.19972 1.88372 
3095 1 0.0621919 -0.140191 -1.01369 1.02523 
490 1 0.604051 -0.376684 -0.628437 0.94958 
3180 1 -0.973182 0.0237059 -0.163457 0.987098 
3916 2 -1.70282 -2.61682 -0.579701 3.17543 
614 1 -0.375931 -0.340116 0.680233 0.848363 
4284 2 -0.306909 0.584185 1.019 1.21402 
231 1 0.221355 0.795756 0.381375 0.909765 
4198 2 -1.39747 0.149061 -0.194257 1.41876 
4298 2 0.00406181 0.733755 -0.611782 0.955348 
3028 1 0.274487 -0.47956 0.00852709 0.552624 
3412 1 -0.208113 -0.573454 0.211925 0.645811 
3631 2 0.11457 -0.693253 0.997998 1.22054 
2861 1 -1.27326 0.900767 -0.0672408 1.56112 
3094 1 0.110475 0.288733 0.0116024 0.309364 
1172 1 0.0962778 -0.0522374 0.00951423 0.109949 
3568 2 0.00458553 0.00998221 0.14178 0.142204 
4271 2 0.140621 0.212574 0.024401 0.256042 
652 1 0.526666 0.12826 0.0549335 0.544836 
116 1 -0.228498 0.168545 -0.216823 0.357255 
3419 1 -0.0317149 0.197941 0.284002 0.347626 
917 1 -0.233305 0.035692 0.0379176 0.239046 
2884 1 0.0580373 -0.364168 -0.30916 0.481213 
307 1 -0.0928156 -0.330135 -0.558258 0.655176 
899 1 -0.0788412 -0.222853 0.0910885 0.25333 
160 1 0.533652 0.0241171 0.446584 0.696278 
3444 1 -0.0846237 0.363308 -0.270773 0.460946 
908 1 -0.110854 -0.215038 0.798491 0.834337 
325 1 -0.0771836 0.237954 0.0978438 0.268613 
292 1 0.0466505 0.0034024 -0.0359455 0.0589909 
3674 2 0.727006 -0.0661199 -0.607974 0.950022 
502 1 0.181528 -0.0580299 -0.0353334 0.193826 
4098 2 0.126282 -0.171078 0.471164 0.516924 
3504 2 0.220394 0.133413 -0.22167 0.339868 
3331 1 0.0692398 0.0105789 -0.372165 0.378699 
225 1 0.210819 -0.199484 -0.0168448 0.290727 
874 1 0.0980304 -0.214451 -0.0371183 0.238699 
980 1 0.201355 -0.228871 -0.0709531 0.312986 
430 1 -0.0106903 -0.0257338 -0.141419 0.144138 
3476 2 0.623986 0.2339 -0.962188 1.17042 
4307 2 0.20249 0.210587 -0.172668 0.339358 
647 1 0.291529 0.287613 -0.332062 0.527233 
3643 2 0.161339 -0.165213 -0.659387 0.698653 
3281 1 -0.0729724 -0.831785 0.335139 0.899727 
810 1 0.227892 0.454086 -0.440824 0.672647 
3070 1 0.951833 -0.645919 -0.88525 1.4515 
295 1 -0.418851 -0.227735 -0.698784 0.84593 
2819 1 0.125028 -0.0498056 -0.713033 0.725623 
404 1 0.247095 -0.0887402 -0.308411 0.405028 
416 1 0.34186 -0.214556 -0.0901839 0.413564 
1354 1 0.198523 -0.0969456 0.30832 0.379304 
3535 2 0.0729529 0.303945 -0.0173184 0.313057 
497 1 -0.508602 -0.491503 0.0697969 0.71072 
964 1 -0.276188 -0.529253 -1.85459 1.9483 
957 1 0.447818 -0.326535 -0.556972 0.785738 
474 1 -0.0116207 -0.0184617 -1.11364 1.11385 
3524 2 -1.704 -1.32834 0.416384 2.20034 
3192 1 0.267298 0.177676 -0.672562 0.745223 
3278 1 0.0353002 -0.0915501 0.117131 0.152798 
92 1 -0.478683 -0.529411 -0.594133 0.928659 
4280 2 1.211 0.413872 0.0277515 1.28007 
2993 1 -0.0676885 -0.0593965 0.00231798 0.0900836 
279 1 0.482048 0.356426 -0.214356 0.636678 
4285 2 -0.764499 -0.0772881 -0.848029 1.14437 
825 1 -0.161692 -0.563108 -0.0786193 0.591114 
783 1 -0.569289 0.601123 0.799617 1.15101 
517 1 0.500562 0.0948092 -0.269264 0.576241 
3487 2 0.019915 -0.0775018 0.196052 0.211754 
4143 2 0.93415 -1.17175 -0.0785406 1.5006 
85 1 -0.185959 -0.17567 0.174697 0.309774 
4028 2 -0.121573 -0.0307422 0.248401 0.278259 
3433 1 0.299687 -0.0213082 0.148427 0.335107 
274 1 -0.16163 0.154365 0.192033 0.294668 
3863 2 -0.311 -0.13451 0.137216 0.365571 
1091 1 -0.114976 0.0502002 0.102673 0.162115 
3396 1 -0.104186 0.0826243 0.140456 0.193415 
3322 1 -0.0701144 0.130471 0.152637 0.21269 
3339 1 -0.0847438 0.585933 -0.736319 0.944809 
4182 2 -0.120587 -0.0655253 -0.811955 0.823471 
3420 1 0.499319 -0.555153 -0.765346 1.06924 
3435 1 0.0340702 0.316955 0.612682 0.690652 
3327 1 0.270509 -0.058916 0.151607 0.315644 
1418 1 -0.0336864 -0.107114 0.406349 0.421578 
443 1 -0.096101 0.194608 0.285847 0.35891 
855 1 0.00161309 -0.0436498 -0.167597 0.173196 
363 1 -0.203944 -0.313724 -0.388522 0.539412 
2869 1 -0.0895745 -0.12767 -0.0194442 0.157166 
177 1 -0.420795 0.455203 -0.22769 0.660395 
1450 1 -0.24496 -0.0193065 -0.0876995 0.260901 
3559 2 -0.115139 -0.197829 0.015861 0.229445 
4237 2 0.0997218 0.0395188 -0.359981 0.375622 
1409 1 0.215158 0.0645183 -0.657734 0.695032 
319 1 -0.307777 0.0484552 -0.260402 0.406058 
440 1 -0.0683899 0.107974 -0.126996 0.180176 
1289 1 -0.0996522 0.124702 -0.281294 0.323431 
442 1 -0.068581 -0.388107 -0.669759 0.777115 
937 1 0.0218004 -0.144261 -0.248124 0.287841 
365 1 0.114572 0.310954 0.834397 0.897796 
830 1 -0.0542431 0.146524 -0.18928 0.245435 
501 1 0.162713 -0.0395707 -0.168706 0.237704 
854 1 0.105708 0.30961 -0.177176 0.372053 
402 1 0.25796 0.327799 -0.37469 0.560703 
433 1 0.122387 -0.159362 -0.273267 0.339189 
1337 1 0.235108 -0.582928 -0.0326671 0.629403 
968 1 0.0849377 0.0610869 -0.0944609 0.140957 
4163 2 -0.425373 -0.550631 0.586533 0.910032 
3397 1 -0.324463 -0.310644 -0.267761 0.522945 
3291 1 -0.0705684 0.131007 -0.0309911 0.151997 
314 1 0.176651 0.122404 -0.0227747 0.216118 
486 1 0.50429 0.0269805 -1.7224 1.79491 
4152 2 -1.28278 1.04453 -1.06942 1.96983 
183 1 -0.524788 0.0757848 -0.272964 0.596368 
757 1 -0.00353161 -0.396248 -0.125258 0.41559 
419 1 0.931275 0.0376213 -0.257688 0.967001 
3200 1 -0.164001 0.380495 -0.248421 0.483101 
1430 1 -0.269767 -0.407217 -0.0830759 0.495482 
822 1 -0.207103 -0.291351 -0.0852157 0.367476 
3961 2 1.06102 -2.13248 -0.634234 2.46485 
781 1 0.0352555 -0.00108951 -0.486946 0.488221 
107 1 -0.225748 0.457831 1.05756 1.17431 
3009 1 0.702449 0.319409 0.161505 0.788379 
3219 1 0.518661 -0.553954 -0.750474 1.06728 
329 1 -0.331958 -0.0432198 0.0666823 0.341336 
699 1 -0.219312 0.0399707 0.0101894 0.223157 
113 1 -0.245635 0.032141 0.21645 0.328969 
3240 1 -0.430164 -0.209609 0.00126618 0.478517 
2795 1 -0.443498 -0.0861728 0.240588 0.511859 
819 1 -0.187284 -0.40668 0.304386 0.5414 
581 1 -0.297545 -0.176554 0.323505 0.473666 
962 1 -0.127128 0.366569 0.390288 0.550326 
423 1 -0.0845284 -0.0609112 -0.122636 0.160919 
3371 1 -0.0684008 -0.225202 -0.283968 0.368826 
800 1 -0.365468 0.267153 -0.0857938 0.460758 
393 1 -0.972459 -0.0855364 -0.765057 1.24028 
654 1 -0.337317 -0.360132 0.0983293 0.503137 
3541 2 -0.802127 0.258984 -0.248239 0.878694 
786 1 -0.440121 -0.0139305 0.223571 0.493847 
367 1 -0.204861 -0.261281 0.245942 0.413186 
3303 1 0.30611 -0.228784 -0.136692 0.40587 
347 1 -0.234185 -0.311629 -0.0148056 0.390096 
406 1 -0.751846 -0.395265 -0.0548941 0.851187 
2687 1 -0.358976 0.175028 0.070086 0.405476 
3545 2 -0.0231069 0.61222 -0.478172 0.777172 
31 1 -0.528761 -0.172178 0.0427522 0.557728 
2814 1 -0.891503 0.20971 -0.679962 1.14066 
4154 2 -1.4499 0.372575 -0.619516 1.62013 
1723 1 -1.02274 0.310753 0.269735 1.10241 
4239 2 1.00508 1.61202 -0.859897 2.08524 
3378 1 0.171551 0.00796685 -0.0974203 0.197444 
3082 1 0.0344951 -0.247376 0.207856 0.324944 
431 1 -0.425499 0.244319 0.232203 0.542825 
504 1 -0.336023 -0.266771 0.392244 0.581321 
496 1 -0.484717 0.0866095 0.304536 0.57896 
2656 1 0.0441251 -0.00607733 0.112883 0.121353 
801 1 -0.0718371 -0.28939 -0.435435 0.527741 
1254 1 -0.178279 -0.279353 0.182442 0.378294 
461 1 0.0511046 -0.138467 0.220657 0.26547 
3436 1 -0.231175 -0.552075 -0.132803 0.613079 
840 1 -0.35652 0.098971 -0.126555 0.391047 
357 1 -0.927209 0.844398 -0.505423 1.3521 
308 1 -0.518275 -0.384132 -0.160456 0.664765 
3013 1 1.18011 0.128719 -0.11345 1.19252 
3312 1 -0.0522765 0.119818 -0.227612 0.262481 
3526 2 0.179575 -0.139727 -0.381047 0.443811 
772 1 -1.05543 -0.0902752 -0.143663 1.06898 
3799 2 -0.398405 0.807758 -0.265666 0.93903 
3944 2 0.218792 0.0473413 0.0635524 0.232702 
349 1 0.0333629 0.111788 0.118178 0.166059 
2873 1 0.342006 -0.690118 0.151309 0.784937 
1304 1 0.384735 -0.117739 0.0476518 0.405159 
875 1 0.154052 0.203313 -0.277897 0.37722 
793 1 0.848472 0.139697 -0.787827 1.16623 
907 1 -0.130937 -0.13327 0.0192882 0.187822 
606 1 0.346222 -0.998755 -0.117984 1.06363 
1641 1 -0.230174 0.0996075 0.00567688 0.250866 
3586 2 0.97108 0.273346 0.415771 1.09114 
396 1 0.231189 -0.0106897 0.301279 0.37991 
1544 1 -0.214798 -0.0254263 0.0492918 0.221843 
858 1 0.204596 0.0359261 0.221095 0.30337 
751 1 -0.0624318 0.0183484 0.693324 0.696371 
1535 1 0.155657 -0.125139 0.354189 0.406618 
3533 2 -0.666064 -1.67028 -1.91784 2.62899 
1160 1 0.179909 -0.418489 -0.340738 0.568861 
631 1 0.197511 0.086552 0.199136 0.293525 
683 1 0.113764 -0.0237108 0.48289 0.496676 
3600 2 0.411643 0.0353116 -0.790978 0.89238 
627 1 0.212037 0.291294 -0.327683 0.48702 
712 1 0.786693 -0.419673 -0.470633 1.00822 
1612 1 -0.00523511 0.275644 0.310823 0.415473 
573 1 -0.0577189 0.555481 -0.0845108 0.564829 
3844 2 -0.0272973 0.765096 -0.0707736 0.768847 
565 1 -0.547945 -0.0120767 -0.177718 0.576171 
4319 2 -0.105289 -0.729775 0.0743694 0.741073 
577 1 -0.00396903 0.146568 0.322582 0.35434 
3173 1 -0.412049 0.170904 0.329443 0.55455 
3616 2 -0.468922 0.420837 0.488793 0.79744 
1569 1 -0.148412 0.627208 -0.143646 0.660341 
3497 2 1.1352 0.176428 0.695698 1.34306 
3418 1 0.349548 0.479296 0.26281 0.648828 
891 1 -0.12048 0.140839 -0.105934 0.213479 
2057 1 -0.0967751 0.0477996 0.176337 0.206748 
1053 1 0.119914 -0.894726 -0.261283 0.939778 
1083 1 0.740736 -0.626688 -0.367386 1.0375 
621 1 -0.0680894 0.222623 -0.205124 0.310279 
555 1 -0.233231 0.452337 -0.104275 0.519498 
655 1 -0.329587 0.180905 -0.452973 0.588675 
65 1 0.610995 -1.1394 -0.558968 1.40855 
934 1 0.559546 -0.0294371 0.0911851 0.567691 
8 1 0.237016 -0.0839531 0.487115 0.548184 
1269 1 -0.0257904 -0.233083 0.31984 0.396599 
617 1 0.378191 0.217767 -0.683485 0.810927 
401 1 -0.195967 0.0826807 0.418684 0.469612 
740 1 -0.0508457 0.0750144 0.306149 0.31928 
3572 2 -0.0465034 0.136902 0.345643 0.374665 
1118 1 0.679847 -0.63207 0.798659 1.22457 