ITEM: TIMESTEP
7200
ITEM: NUMBER OF ATOMS
4320
ITEM: BOX BOUNDS pp pp pp
0.0000000000000000e+00 1.9309999999999999e+01
0.0000000000000000e+00 1.9309999999999999e+01
0.0000000000000000e+00 9.6549999999999994e+00
ITEM: ATOMS id type c_displacement[1] c_displacement[2] c_displacement[3] c_displacement[4] 
3196 1 -0.358001 -0.0476046 -0.273697 0.453145 
381 1 -0.0366786 -0.0210289 0.201744 0.206127 
327 1 0.171731 -0.0128385 0.140456 0.222226 
484 1 0.066866 0.13749 0.182551 0.238117 
728 1 0.0969549 -0.0619371 0.165538 0.201592 
303 1 0.209221 -0.318345 -0.47021 0.605156 
10 1 0.32576 0.12055 -0.120905 0.36779 
3199 1 -0.0246689 -0.0432811 -0.121548 0.131361 
3460 2 0.00471497 -0.153038 -0.0110902 0.153512 
2945 1 0.0293199 -0.0230394 -0.0717676 0.0808768 
3230 1 0.094796 -0.0587651 -0.158662 0.193942 
3651 2 -0.0255467 0.00311413 -0.152783 0.154936 
66 1 0.023221 -0.0259181 -0.284692 0.286811 
400 1 -0.0187461 -0.0428836 -0.0507659 0.0690478 
677 1 -0.103658 -0.158638 -7.30145e-06 0.189502 
87 1 0.0259754 0.024297 -0.0740628 0.0821606 
623 1 0.0722593 0.0146447 -0.00148131 0.0737433 
727 1 0.0635609 -0.150859 -0.164327 0.231952 
688 1 -0.0432296 0.0259752 0.0132286 0.0521393 
58 1 -0.0301005 -0.217541 0.00731551 0.219735 
3514 2 -0.166521 0.0420226 -0.152651 0.229777 
18 1 0.0375552 0.0391742 -0.0158019 0.0565218 
190 1 -0.110666 0.00823051 -0.0704681 0.131455 
298 1 0.016281 -0.0922203 0.0492341 0.1058 
3618 2 -0.105559 -0.191087 0.00207942 0.218315 
4053 2 0.0244214 -0.0452176 0.114262 0.125287 
608 1 -0.0433109 -0.0891015 -0.149695 0.179509 
106 1 -0.0999707 -0.0943305 -0.122838 0.184341 
217 1 -0.00930833 -0.0554068 -0.0315046 0.0644135 
775 1 -0.0189895 0.0815955 -0.14934 0.171233 
3627 2 0.0646449 0.290841 -0.0404389 0.300671 
180 1 0.0373946 -0.059693 0.161847 0.17651 
2461 1 -0.0706452 -0.0123141 -0.0461735 0.0852899 
3118 1 -0.0905962 0.0757183 -0.141783 0.184509 
562 1 0.0395523 -0.0490772 0.0262783 0.0682898 
70 1 -0.111439 0.0321743 0.0263902 0.118955 
121 1 0.0580205 0.134174 -0.0591434 0.157693 
1118 1 -0.159823 -0.260901 -0.0186412 0.306529 
210 1 0.101338 -0.0394603 0.127544 0.167612 
4214 2 0.0333526 -0.0843385 0.120555 0.15086 
226 1 0.0893647 -0.0631785 0.0594284 0.124536 
197 1 0.01813 0.0109377 -0.0123241 0.0244993 
3006 1 0.0541263 -0.100712 0.0720019 0.135118 
3393 1 -0.0337301 -0.0441084 -0.00348534 0.0556365 
532 1 0.0137504 -0.0529221 0.0452968 0.0710043 
3578 2 -0.0687272 -0.000910543 0.0266477 0.0737181 
473 1 -0.0826134 -0.0401131 -0.0978764 0.134216 
246 1 0.0529056 0.0825472 0.0361585 0.104501 
737 1 0.122803 0.0243362 -0.358699 0.379918 
817 1 0.098011 0.0113517 0.435183 0.446228 
4071 2 0.0751383 -0.0700159 0.208923 0.232802 
2838 1 0.109259 0.0182798 0.0692843 0.13066 
536 1 0.0306311 0.0838656 0.211479 0.229554 
894 1 0.0312169 0.0942965 -0.276869 0.294147 
289 1 0.0202203 -0.0721915 0.186697 0.201188 
351 1 -0.13781 0.0745311 -0.0827078 0.177164 
3135 1 0.0631753 0.0860882 0.121148 0.16149 
2768 1 0.213749 0.171158 -0.135669 0.305598 
4289 2 -0.089139 0.0726868 0.0571676 0.128442 
1415 1 0.0290811 0.155816 -0.0575718 0.168639 
527 1 -0.137624 0.160791 -0.0543417 0.218511 
3002 1 -0.225949 0.104501 0.0345427 0.25133 
3189 1 0.154051 0.131607 0.105784 0.228566 
712 1 0.0192874 0.0824827 -0.0917271 0.124857 
718 1 -0.105003 -0.14528 0.175773 0.251054 
3469 2 0.011137 -0.0565439 0.15009 0.160774 
110 1 -0.021932 0.141786 0.0426066 0.149665 
4177 2 0.132364 -0.382359 0.0376227 0.406367 
93 1 -0.0609556 0.14588 -0.0134748 0.158677 
569 1 0.0257204 0.0128788 0.00181335 0.0288217 
639 1 -0.295804 0.0942058 -0.00246427 0.310453 
21 1 -0.134395 -0.100728 0.0246383 0.169751 
3353 1 -0.321188 -0.265656 -0.0700518 0.422661 
167 1 -0.0479921 0.0208501 -0.00641495 0.0527173 
823 1 0.127074 -0.0793455 -0.00890975 0.150076 
2596 1 -0.0147318 -0.212252 0.102226 0.236047 
50 1 -0.157512 -0.404466 -0.085263 0.442349 
2495 1 0.040144 0.086501 0.102289 0.139847 
28 1 -0.10186 0.0390184 -0.0278988 0.112589 
3055 1 0.0735743 -0.158552 -0.00368985 0.17483 
12 1 0.031933 0.0407926 -0.132066 0.141863 
738 1 0.0963425 -0.29813 -0.113977 0.333398 
65 1 0.121847 -0.0319749 0.044717 0.133674 
232 1 -0.0964649 -0.00493099 -0.019363 0.0985125 
4170 2 -0.168012 -0.0316237 0.1851 0.251973 
2453 1 0.201091 -0.067894 0.166895 0.270002 
3167 1 0.00816832 -0.0867108 -0.0231283 0.0901133 
339 1 -0.000662111 0.128909 0.01186 0.129455 
988 1 -0.161921 -0.10538 -0.2287 0.299378 
390 1 0.24526 -0.162362 0.0606765 0.300325 
23 1 0.0240465 -0.122051 -0.270618 0.29784 
203 1 -0.0212776 -0.0453241 -0.0452012 0.0674548 
3582 2 0.0061307 0.269521 -0.0904745 0.284367 
3632 2 0.100455 0.0652729 -0.0718398 0.139688 
231 1 0.0276311 -0.0696175 0.0750837 0.106055 
323 1 0.0150504 -0.0574 -0.0379054 0.0704137 
3244 1 0.0623068 -0.0528352 -0.0785878 0.113357 
118 1 0.0272769 0.0263377 0.0687541 0.0785164 
2478 1 -0.0259624 0.101277 0.0448779 0.113776 
3808 2 0.02808 0.00684303 -0.0668914 0.0728682 
2960 1 -0.213348 -0.0973913 -0.149529 0.278139 
2735 1 -0.173351 -0.168434 0.12778 0.273401 
29 1 -0.237916 0.363412 -0.137213 0.455522 
753 1 -0.0970785 -0.114946 -0.0615296 0.162551 
3467 2 -0.240712 0.105301 0.246679 0.36039 
553 1 -0.0602258 0.0553414 -0.319734 0.33003 
1178 1 -0.0147611 0.0432403 -0.0667307 0.080874 
3251 1 0.0133956 0.110279 -0.302896 0.322625 
546 1 -0.160795 -0.0158865 0.127712 0.205956 
437 1 0.126757 0.0922208 -0.219843 0.270006 
53 1 0.195522 0.142628 -0.212796 0.322263 
593 1 -0.0627656 0.110713 0.184467 0.224109 
609 1 0.222034 0.123696 -0.228273 0.341626 
3040 1 -0.0423557 0.117858 -0.217431 0.25092 
725 1 -0.102457 0.0208379 0.191995 0.218618 
4228 2 0.196627 0.156993 -0.359315 0.438653 
4187 2 -0.0361681 0.165107 -0.512148 0.539318 
96 1 0.0783012 -0.137252 -0.205284 0.259057 
610 1 0.156329 0.0264576 -0.0194722 0.159743 
89 1 -0.125993 -0.041607 0.0369497 0.137734 
3149 1 0.0313454 0.0600398 0.207009 0.217808 
550 1 -0.0822326 -0.128093 0.0942877 0.179054 
147 1 0.0559582 0.0500001 0.14965 0.167411 
247 1 0.0763646 0.129791 0.098649 0.180025 
3554 2 0.033779 -0.0461216 0.095553 0.111349 
3786 2 -0.138599 0.0255795 -0.0424778 0.147201 
5 1 -0.000903421 0.0391431 0.0289875 0.0487163 
2591 1 0.0411409 -0.0413291 -0.00690245 0.0587223 
3232 1 -0.0909175 0.0343288 -0.0314496 0.102145 
1215 1 0.221234 0.137782 0.0363487 0.263153 
859 1 0.132887 -0.0654384 0.06143 0.160358 
3152 1 -0.127234 0.0109212 -0.0263437 0.13039 
2936 1 0.0301862 0.157064 -0.124076 0.202423 
255 1 0.0592893 -0.0876644 -0.123548 0.162678 
215 1 -0.160962 -0.0258746 0.0894868 0.185973 
1454 1 -0.153813 -0.0633721 0.000354787 0.166357 
59 1 -0.0100443 -0.0919485 0.0394139 0.100543 
3730 2 -0.0259207 -0.338571 -0.280583 0.440487 
43 1 0.0665117 -0.124193 -0.0106766 0.141286 
3743 2 -0.00324324 0.000205568 -0.0322412 0.0324046 
3023 1 -0.0647014 0.289254 -0.166224 0.33983 
151 1 0.0844973 -0.122399 0.017247 0.149729 
3611 2 -0.0443524 -0.095439 -0.0526108 0.117659 
424 1 0.0546664 -0.024257 -0.0350176 0.0693041 
3346 1 0.0352791 0.0633449 0.0236588 0.0762688 
3478 2 0.026365 0.0665531 0.0806262 0.107819 
3679 2 -0.0975279 0.121326 -0.0176463 0.156662 
2500 1 0.0497548 -0.00021615 -0.13298 0.141983 
3188 1 0.112642 0.267865 -0.0672075 0.298256 
529 1 -0.415321 -0.322978 -0.232354 0.575147 
825 1 0.180045 0.0589461 0.0750134 0.203759 
691 1 0.00852182 -0.501921 0.03243 0.503039 
140 1 -0.0484578 -0.212448 0.137809 0.257824 
3464 2 -0.190682 -0.684659 -0.173991 0.731704 
3491 2 -0.485192 0.401423 -0.549998 0.836092 
2981 1 0.0114489 -0.0299897 -0.0242192 0.0402123 
3493 2 0.34535 -0.0201641 0.370456 0.506864 
2931 1 -0.0460972 -0.0632938 0.157783 0.176144 
174 1 -0.0254893 -0.0896791 -0.025198 0.0965763 
1480 1 -0.105074 -0.266903 0.264366 0.390086 
2968 1 -0.0135566 -0.163255 0.169876 0.235995 
98 1 0.113081 -0.296085 0.160394 0.355218 
40 1 0.110688 -0.179796 -0.132417 0.249224 
1331 1 -0.341971 -0.0812606 0.174828 0.392571 
1130 1 0.00546899 -0.137807 -0.0837184 0.161337 
1133 1 0.116417 -0.0809314 0.113493 0.181613 
3041 1 -0.0845239 -0.280609 -0.145831 0.327342 
604 1 0.010788 -0.0553103 0.00656099 0.0567332 
721 1 -0.233945 -0.00375429 -0.0201175 0.234839 
2994 1 -0.0570735 -0.037859 0.151527 0.166286 
3164 1 0.0444405 0.0689243 0.0089421 0.0824954 
233 1 0.130555 0.227013 0.208441 0.334705 
241 1 -0.283345 -0.00260651 -0.0362069 0.285661 
64 1 -0.0590973 -0.124854 -0.11027 0.17675 
193 1 0.0855833 -0.0247333 -0.124398 0.153007 
44 1 -0.00758936 -0.0542296 0.0323079 0.0635786 
2996 1 0.034801 0.165093 -0.193312 0.256586 
4212 2 -0.0241146 0.132775 -0.199027 0.240463 
3279 1 -0.0135674 0.00426786 -0.0963579 0.0974019 
178 1 0.0888445 0.0528813 -0.150374 0.182489 
78 1 0.0874799 0.0409994 -0.0424688 0.105533 
949 1 -0.0507813 0.00863376 -0.0407329 0.0656692 
3608 2 0.0210001 0.0409727 -0.000228432 0.0460415 
330 1 0.0180668 0.249627 0.0419612 0.253773 
600 1 -0.0453368 -0.0138629 0.0623706 0.0783435 
338 1 -0.193901 -0.133092 -0.0517735 0.240814 
4101 2 -0.0907095 -0.0286343 0.0669385 0.116314 
3216 1 0.00620745 0.0363853 -0.0395928 0.0541296 
4217 2 -0.111031 -0.0255729 0.0975938 0.150021 
479 1 -0.0659453 -0.0295232 0.0558603 0.0913279 
3335 1 0.00936738 -0.0948019 -0.0220739 0.0977875 
1457 1 -0.0420759 -0.113875 -0.142468 0.187177 
3037 1 -0.0514668 0.053271 -0.120936 0.141818 
4253 2 0.0353758 0.00760163 -0.068658 0.077609 
387 1 0.111807 -0.165065 -0.0291153 0.201481 
3736 2 -0.0363626 0.123618 0.0544126 0.139873 
717 1 -0.128266 -0.226665 0.274957 0.378722 
508 1 -0.0812727 -0.238725 0.0844989 0.26596 
3537 2 0.140303 -0.0193664 -0.0597978 0.15374 
747 1 -0.158357 -0.0513229 0.0612726 0.177385 
497 1 -0.115641 -0.145329 0.0130524 0.186182 
958 1 -0.11636 -0.444796 0.118515 0.474794 
3130 1 -0.00794587 -0.059291 -0.124843 0.138435 
4163 2 -0.0301154 -0.203126 0.164475 0.263095 
3394 1 -0.0371967 -0.125546 0.0357665 0.135737 
3830 2 -0.366904 -0.080073 0.116895 0.393312 
133 1 0.0361542 -0.0024375 0.0368465 0.0516791 
4204 2 -0.13417 -0.134186 0.15071 0.242324 
86 1 0.288742 -0.0378543 -0.0199314 0.291895 
759 1 -0.0462374 -0.12543 -0.200673 0.241123 
3411 1 -0.108437 0.035642 0.248806 0.27374 
835 1 -0.42664 0.177585 0.0521985 0.465062 
3057 1 0.282793 -0.00892312 -0.1694 0.32977 
3620 2 -0.103482 0.690169 0.096348 0.704503 
2494 1 0.120766 -0.0601194 0.0730003 0.153388 
704 1 -0.0463954 0.23642 -0.385403 0.454513 
3599 2 -0.233971 -0.00542397 -0.198684 0.306997 
157 1 -0.0624137 -0.0237708 -0.0431958 0.0795386 
54 1 -0.135355 0.0736961 0.0085544 0.154355 
493 1 -0.0259457 0.187916 -0.0321216 0.192399 
204 1 -0.0364331 0.113815 -0.0984493 0.154834 
191 1 0.0569494 0.0427045 -0.0546418 0.0897365 
254 1 0.0464726 0.145254 -0.254176 0.296419 
67 1 0.105185 0.18481 -0.0805289 0.227384 
2988 1 -0.103555 0.224592 -0.111245 0.271184 
3030 1 -0.241252 0.270198 -0.0102115 0.362372 
4050 2 0.266547 0.176377 -0.0431759 0.322521 
2004 1 -0.171711 0.0187434 -0.0114007 0.173107 
2934 1 0.107576 0.0213361 0.0367446 0.115664 
3007 1 -0.0152108 -0.064319 0.0377715 0.0761248 
3479 2 0.0423011 0.446917 -0.0483742 0.451513 
234 1 0.0652694 -0.140204 -0.0649865 0.167751 
1036 1 0.180554 -0.0646855 -0.062468 0.201708 
3369 1 -0.0515427 0.0345751 -0.0287504 0.0684008 
3607 2 -0.0528826 -0.0824043 -0.0116681 0.0986062 
3139 1 0.0121901 -0.0266396 0.0334121 0.0444368 
644 1 -0.0666131 -0.0730694 -0.0506296 0.111085 
1278 1 0.046811 0.0524112 -0.071239 0.100066 
4269 2 -0.0117953 0.114918 0.124652 0.169951 
143 1 0.0165353 0.0570382 -0.0508152 0.0781598 
563 1 -0.0381808 0.102298 0.0839843 0.137754 
214 1 0.0381662 -0.0332543 0.0519654 0.0725459 
640 1 -0.0811855 -0.0938794 0.0711698 0.143072 
199 1 0.00206757 -0.0984002 -0.0661663 0.118595 
245 1 0.0257428 -0.00651512 0.152194 0.154493 
2758 1 -0.0778309 0.0179447 -0.00694695 0.0801743 
3056 1 0.0103309 -0.198429 -0.064795 0.208996 
3468 2 -0.0347235 -0.0230513 0.0271128 0.0497211 
4089 2 0.0891489 -0.0106113 -0.0272952 0.0938358 
2684 1 -0.445831 0.0442847 -0.283536 0.530206 
3096 1 -0.157119 0.0723308 0.0295727 0.175479 
240 1 -0.0792472 0.00893391 -0.181078 0.197861 
181 1 -0.182816 -0.104734 -0.022171 0.211855 
46 1 0.0547601 -0.30762 0.0412917 0.315173 
3211 1 0.0577654 0.149324 0.156213 0.223689 
3603 2 -0.0850739 -0.397927 0.321611 0.518669 
249 1 -0.133264 -0.191181 -0.00882768 0.233211 
2939 1 -0.276109 0.0227821 -0.17108 0.325612 
1102 1 0.0997843 0.383905 -0.365003 0.539043 
3701 2 0.274055 -0.0441136 -0.176391 0.328885 
3513 2 -0.103793 -0.371411 -0.0896351 0.395921 
312 1 0.21935 -0.0245445 -0.277956 0.354931 
587 1 -0.00368199 -0.0112294 -0.100985 0.101674 
135 1 -0.0844589 -0.0908804 -0.0639501 0.139579 
3512 2 -0.08818 0.000221615 -0.160494 0.183123 
134 1 -0.00470724 0.110161 0.106389 0.153219 
1179 1 0.0846583 0.114884 0.0176032 0.143789 
559 1 -0.0236829 0.0627589 -0.0934911 0.115066 
446 1 0.0266534 -0.0271416 0.0371384 0.0531633 
195 1 -0.00388049 0.123319 0.00221804 0.1234 
2995 1 -0.0763354 -0.173881 -0.148385 0.240998 
685 1 -0.0386044 0.0503954 -0.0591016 0.0867352 
602 1 -0.176747 0.0706895 -0.144868 0.239213 
3092 1 -0.118085 0.07642 0.0203194 0.142116 
4195 2 -0.160633 -0.112385 -0.216315 0.291934 
85 1 -0.0389265 -0.151327 0.0665779 0.169847 
674 1 0.00857535 0.0140243 -0.0240218 0.0291078 
540 1 0.0233112 0.0920342 -0.113128 0.147687 
182 1 0.109452 -0.069886 -0.0819275 0.153544 
427 1 0.0329596 0.0666155 -0.0929987 0.119049 
4173 2 0.0474569 -0.17107 0.0810916 0.195174 
2950 1 0.0377541 -0.143667 -0.0750973 0.166449 
6 1 -0.0504739 0.251505 -0.0730693 0.266723 
690 1 0.0811178 -0.0668041 -0.0223829 0.107442 
902 1 0.0874261 0.0806079 0.0348193 0.123909 
3115 1 -0.234475 0.0436648 -0.0398544 0.241813 
742 1 -0.0820517 0.113739 0.108265 0.177174 
154 1 -0.0346427 0.00901554 0.00310656 0.0359311 
2926 1 -0.21054 -0.185665 0.0803 0.291971 
710 1 -0.0208541 0.0230891 -0.156354 0.15942 
257 1 -0.117089 0.100243 -0.114136 0.191795 
80 1 -0.0606966 -0.0268899 -0.00830235 0.0669035 
580 1 0.0237827 -0.00311742 0.0518657 0.0571436 
95 1 -0.0448236 -0.0540481 0.0496178 0.0859784 
354 1 -0.00256436 -0.0273906 0.0614772 0.0673518 
3408 1 -0.086537 -0.104737 0.00464251 0.135942 
2977 1 -0.0603589 -0.00430747 -0.0525127 0.0801208 
3518 2 -0.114635 0.0168375 0.0224931 0.118028 
3010 1 -0.0404299 0.208007 0.0278948 0.213727 
216 1 -0.0694763 -0.070677 0.0824194 0.1289 
3841 2 -0.151519 -0.0188089 0.0372586 0.157162 
103 1 -0.09155 0.0299704 -0.071017 0.119679 
3003 1 -0.102352 0.0188845 0.0559479 0.118164 
3916 2 -0.418744 -0.197296 0.123361 0.479052 
920 1 -0.0014022 -0.0528339 0.0159877 0.0552177 
205 1 -0.219535 -0.0220569 -0.0144439 0.221113 
694 1 -0.142289 0.0878731 0.00328337 0.167268 
861 1 -0.276418 -0.110417 0.138615 0.328349 
3549 2 -0.16486 -0.103767 -0.281821 0.342592 
3401 1 -0.0427361 -0.0317095 -0.0535681 0.0755077 
1077 1 -0.0974921 0.119281 0.0873317 0.177086 
4014 2 -0.146653 -0.0462484 0.00259207 0.153795 
512 1 -0.00401278 0.0346063 -0.0473082 0.0587518 
300 1 0.033377 0.0646937 0.0532841 0.0902136 
393 1 -0.120084 -0.0205715 -0.144899 0.189312 
2740 1 0.0179707 0.218306 0.0768759 0.232143 
3197 1 -0.0453919 0.0197045 0.098976 0.110657 
886 1 -0.0676023 0.104141 0.0548051 0.135717 
4006 2 -0.0207369 0.187911 0.130749 0.229861 
286 1 -0.120713 0.0972941 0.00361415 0.155083 
3341 1 -0.243366 0.131276 -0.043292 0.279883 
277 1 -0.154252 -0.150912 0.0618282 0.224479 
364 1 -0.129854 0.00479703 0.0180533 0.131191 
1367 1 0.079684 -0.092882 -0.0280142 0.125544 
411 1 -0.126948 0.143171 0.102434 0.21704 
966 1 -0.140859 0.00945265 0.156271 0.210597 
3389 1 -0.00880901 -0.128568 0.0283507 0.131951 
160 1 -0.202048 0.210435 0.0297959 0.293247 
635 1 -0.269903 -0.0605076 0.164766 0.321957 
4154 2 -0.182546 0.20939 0.0262508 0.279027 
433 1 -0.0597036 0.0862342 -0.0490556 0.11579 
357 1 -0.253006 -0.0429234 0.038998 0.259568 
362 1 0.103262 0.00398425 0.0264065 0.106659 
478 1 -0.128021 0.151172 0.0154346 0.198697 
4159 2 -0.476859 0.506642 -0.140375 0.709779 
2696 1 -0.00326035 0.10811 -0.0150499 0.109201 
780 1 -0.0568897 -0.0513758 -0.175931 0.191905 
3612 2 0.104175 0.146191 0.0932079 0.202266 
4239 2 0.762911 1.36463 -0.5977 1.67376 
2710 1 -0.00818111 0.0342657 -0.211551 0.214464 
3313 1 -0.00601849 0.00298171 -0.110114 0.110318 
3333 1 0.0454591 -0.127566 0.0865817 0.160735 
924 1 0.0704446 -0.0248103 0.134207 0.153589 
3290 1 -0.0463643 0.0946068 0.0213148 0.107491 
3319 1 0.0718854 -0.0205711 -0.0292986 0.0803062 
2365 1 -0.00737006 0.0838547 -0.115237 0.142708 
353 1 0.00603283 -0.0887868 0.0337468 0.0951753 
1449 1 0.10037 -0.0987131 0.137075 0.196489 
3526 2 -0.0180088 -0.118523 -0.0884932 0.149007 
903 1 -0.0137758 0.0293725 -0.0943588 0.0997802 
3303 1 0.0310484 0.0190292 0.150449 0.154794 
3249 1 -0.0751849 0.111686 0.075712 0.154463 
92 1 -0.0661857 -0.210293 0.0386438 0.223824 
3379 1 -0.106443 -0.0648901 0.103872 0.162266 
228 1 -0.179794 -0.0685454 -0.0162126 0.193099 
1354 1 -0.0274935 -0.176686 0.170868 0.247325 
3162 1 -0.225913 0.213759 0.13215 0.337924 
462 1 -0.122772 -0.0477985 -0.0298316 0.135084 
2966 1 -0.0325793 -0.0131376 0.03022 0.0463385 
3022 1 -0.110462 -0.00391896 -0.0193553 0.112214 
750 1 -0.0717706 -0.0364428 -0.0879253 0.119206 
449 1 -0.0934158 -0.0546356 -0.00512093 0.108341 
3676 2 0.157984 -0.0205378 -0.0561254 0.16891 
3631 2 -0.0295709 0.0190032 0.130959 0.135594 
287 1 -0.0423094 -0.0474972 -0.0160071 0.0655919 
3647 2 -0.314327 0.0607447 -0.0791085 0.329772 
2890 1 0.0212429 -0.00986607 -0.128317 0.130437 
1285 1 -0.119352 0.131597 0.100763 0.204244 
3209 1 -0.0807938 -0.229304 -0.00684191 0.243218 
943 1 -0.304605 -0.114395 0.0683165 0.332472 
3305 1 0.0103394 0.24089 0.195284 0.310276 
3409 1 0.126939 -0.229357 0.251789 0.363478 
356 1 -0.143648 -0.0604644 0.112021 0.191936 
2732 1 -0.0653852 -0.182309 0.0444029 0.198705 
4123 2 -0.354282 -0.0819397 0.21355 0.421703 
3404 1 0.0322434 -0.107199 0.0410972 0.119248 
4318 2 -0.318538 0.178126 0.403902 0.544364 
3883 2 -0.119696 -0.0334001 0.0898988 0.153377 
3227 1 -0.0820167 -0.150823 0.223698 0.281985 
373 1 0.147489 -0.136053 0.0411575 0.204835 
4297 2 -0.14034 -0.0677615 0.41185 0.440349 
3531 2 -0.126449 -0.105263 0.0814951 0.183606 
3221 1 -0.0485757 -0.0608999 0.0505359 0.0928563 
3658 2 -0.158268 0.304527 0.528294 0.629985 
398 1 -0.311153 0.0268861 0.0374264 0.314547 
309 1 -0.0233452 0.131328 -0.107164 0.171103 
836 1 0.198122 -0.0508919 -0.0745031 0.217699 
394 1 0.184495 0.051091 -0.0168983 0.192183 
412 1 0.0906177 0.0525602 0.0580544 0.119768 
1212 1 -0.00408539 -0.0500338 0.0472259 0.0689229 
3360 1 0.0715844 0.0171041 -0.0397893 0.0836664 
3573 2 -0.0156948 0.0309348 -0.0135079 0.0372256 
392 1 0.124115 -0.0167659 -0.0351508 0.130081 
2329 1 0.0493754 -0.206281 -0.15996 0.265663 
3588 2 0.0253309 0.0276847 0.103799 0.110374 
306 1 0.0027988 0.0210308 0.0197963 0.0290176 
3093 1 0.0203792 0.0371361 -0.0819173 0.0922217 
2745 1 0.0216902 0.0290437 0.0594651 0.0696427 
355 1 -0.126487 -0.0434805 0.111516 0.174141 
3097 1 0.104071 0.0247186 -0.101755 0.147634 
3392 1 0.0332898 -0.0584248 0.0836347 0.107315 
3324 1 0.141722 -0.0235376 0.0142077 0.144364 
951 1 -0.0261714 0.0506614 0.0909651 0.10736 
2737 1 -0.00642792 -0.0342417 0.0606726 0.0699641 
2959 1 -0.204591 -0.014764 -0.00431076 0.205169 
4284 2 -0.0903873 -0.0305617 0.0480628 0.106836 
4225 2 0.228502 -0.165798 0.129796 0.310723 
3483 2 -0.110453 0.0994174 0.134816 0.200647 
3337 1 -0.0820321 0.110548 -0.0600945 0.150205 
3257 1 0.0740535 -0.0819264 -0.148163 0.184792 
4116 2 0.0528872 -0.128085 0.110155 0.177022 
1304 1 0.101181 -0.109438 0.00325394 0.14908 
3535 2 0.0314376 0.0488118 -0.0647403 0.086961 
601 1 -0.0810014 -0.0430464 -0.0296478 0.0964013 
3617 2 0.0541366 -0.0952617 0.00764216 0.109836 
206 1 0.0226142 -0.0882593 -0.0267154 0.0949464 
71 1 0.125768 -0.0344086 0.00505897 0.130488 
4185 2 0.148249 -0.183449 -0.214231 0.318631 
716 1 0.287044 0.0193818 -0.0438879 0.291026 
614 1 0.130595 0.0506243 -0.0172868 0.141127 
763 1 0.00384936 0.0247438 0.164688 0.166581 
389 1 0.171435 -0.147459 0.0609446 0.234197 
3561 2 0.0274799 -0.0444601 -0.0082803 0.0529189 
388 1 -0.167945 -0.0612192 0.120999 0.215857 
1313 1 0.0392788 -0.0366206 -0.0703834 0.0885309 
444 1 -0.0693276 0.0305483 -0.080197 0.110323 
3668 2 -0.0809331 -0.071941 -0.0844564 0.137326 
838 1 -0.050142 0.0726735 0.0434915 0.0984234 
460 1 0.100165 -0.256049 -0.0101424 0.275131 
499 1 0.0869099 -0.0237077 -0.0443239 0.100399 
3548 2 -0.552689 -0.261238 0.0870709 0.617488 
2479 1 -0.170488 -0.00510282 -0.098465 0.196945 
3321 1 0.0851395 -0.135888 0.0442299 0.166344 
4264 2 0.177955 0.0265259 -0.0780018 0.196102 
3281 1 0.0579535 -0.070327 0.0839008 0.12387 
291 1 0.152308 0.217176 -0.0250849 0.266444 
482 1 0.0973035 0.0569245 0.137297 0.177648 
1314 1 -0.0993216 0.0580746 0.0300708 0.118919 
3672 2 0.238635 0.0928343 0.180405 0.313226 
375 1 0.101741 0.0386463 -0.118338 0.160775 
94 1 0.0725827 -0.07886 -0.0799124 0.13369 
100 1 -0.0553014 -0.0887765 0.00776109 0.10488 
37 1 0.0931351 0.0466002 0.21781 0.241427 
3380 1 -0.0403002 0.0607063 -0.0419793 0.0840929 
4309 2 -0.121612 0.0411979 0.0642545 0.143581 
436 1 -0.00603991 0.157817 -0.122064 0.199605 
792 1 -0.0011213 -0.128739 -0.0624241 0.14308 
3293 1 -0.00309709 0.0217581 -0.0403253 0.0459253 
901 1 0.111864 -0.0309945 0.0646148 0.13285 
3150 1 -0.198616 0.101194 0.0728635 0.234516 
318 1 -0.09967 -0.133126 0.0586287 0.176335 
3314 1 -0.0166557 -0.191838 0.116643 0.225133 
3350 1 0.06381 -0.172631 0.0924396 0.205957 
3180 1 -0.0918916 -0.240261 0.0797314 0.269308 
2861 1 -0.0647392 -0.155957 0.123063 0.208946 
3320 1 0.0090131 -0.282024 0.0857596 0.294913 
468 1 0.209373 -0.0453268 0.126709 0.248891 
3095 1 -0.189234 0.0405695 -0.031823 0.196133 
4257 2 0.534434 0.431384 -0.0577255 0.689234 
2961 1 0.0575388 -0.0591579 -0.0920043 0.123593 
221 1 0.0106459 0.145244 -0.0624881 0.158474 
771 1 -0.17958 0.157451 -0.090522 0.255409 
962 1 -0.0262892 -0.104882 0.0959895 0.144587 
3301 1 -0.0573887 -0.00821512 -0.0597534 0.0832552 
2873 1 0.0890775 0.0568995 0.289348 0.30805 
4271 2 0.0643758 -0.0495843 -0.000281752 0.0812584 
1172 1 0.0250316 -0.127555 -0.0497836 0.139195 
652 1 0.196436 -0.0441915 -0.010755 0.201633 
3568 2 -0.102085 -0.154622 0.228263 0.293995 
3433 1 0.203347 -0.103522 0.0878272 0.2445 
3419 1 0.0188754 -0.079234 0.0905201 0.121771 
248 1 0.013338 -0.00941397 0.0661638 0.0681482 
917 1 -0.0305138 -0.171549 -0.0150971 0.174894 
3082 1 0.0818295 -0.00156167 0.129352 0.15307 
483 1 0.00745511 -0.0220588 0.118942 0.1212 
325 1 0.0682293 -0.105748 0.0853057 0.152036 
292 1 0.0698704 -0.194409 -0.123106 0.240483 
3444 1 0.0452947 -0.0317496 -0.00329158 0.055412 
908 1 0.144587 -0.251437 -0.0809168 0.301121 
3504 2 0.324028 -0.157596 0.00403614 0.360342 
423 1 0.181747 0.161247 0.0371942 0.245797 
502 1 -0.0178536 -0.0356058 0.0784123 0.0879489 
3435 1 -0.0298185 -0.0650472 0.0799417 0.107289 
3331 1 0.0632867 -0.135685 0.0101246 0.15006 
430 1 -0.206094 -0.062282 0.118838 0.245919 
4182 2 0.110825 -0.0884356 -0.00263619 0.14181 
874 1 0.0412485 -0.314385 0.0501834 0.321026 
980 1 -0.0720526 -0.107449 0.0781387 0.151137 
225 1 -0.0485044 -0.293248 0.0993208 0.313387 
4307 2 -0.0634052 -0.0920182 -0.173561 0.206424 
810 1 0.0131995 -0.0995885 -0.0218093 0.1028 
3312 1 -0.104259 0.00306871 0.0275699 0.107887 
3094 1 0.0835881 0.0244604 0.274365 0.287857 
404 1 -0.0851167 -0.107204 -0.0952713 0.166776 
4280 2 0.033212 -0.0264498 -0.132273 0.13892 
416 1 -0.0394797 -0.124108 -0.00905516 0.130551 
365 1 -0.014942 -0.214471 0.0327017 0.217464 
3799 2 -0.123101 -0.0949926 0.0428333 0.161283 
2819 1 0.0252971 -0.114763 -0.0442883 0.125586 
382 1 0.00551979 0.00246596 -0.0943437 0.0945372 
2776 1 0.043143 0.0431055 0.0761889 0.0975918 
295 1 -0.061236 -0.181276 -0.130469 0.231588 
471 1 -0.00924887 0.332975 -0.117106 0.353088 
3266 1 -0.0539752 0.0640601 0.136007 0.159734 
2973 1 -0.145626 -0.0758801 -0.032207 0.167338 
957 1 0.00365903 -0.123923 0.0254874 0.12657 
795 1 0.0303877 -0.251689 0.0393493 0.256552 
4256 2 -0.0926486 -0.421857 0.209922 0.480224 
490 1 -0.0802023 -0.0932941 -0.0851787 0.149638 
863 1 0.312863 0.26415 0.155785 0.438095 
22 1 0.0267789 -0.0472154 -0.0522815 0.0753642 
439 1 0.0836783 0.158298 -0.0653114 0.190594 
4285 2 0.0596212 0.294118 -0.179124 0.349493 
107 1 -0.157094 -0.0457058 -0.0261915 0.165691 
496 1 0.243674 -0.0820066 0.160113 0.302883 
2993 1 -0.186553 0.278191 -0.0703976 0.342269 
517 1 0.248499 -0.255529 0.0639044 0.362119 
279 1 -0.030682 0.273382 0.0419906 0.278285 
307 1 0.0399639 -0.0513648 0.104089 0.12276 
349 1 0.165004 -0.151971 -0.0666318 0.234012 
819 1 -0.0870203 -0.0025662 -0.0293543 0.0918738 
3322 1 0.0441565 -0.0355883 0.029274 0.0638223 
3863 2 -0.208825 -0.214128 0.0431117 0.302187 
274 1 0.178797 0.0601817 0.00077153 0.188655 
1091 1 0.0613202 -0.113248 0.231467 0.264881 
3396 1 -0.0286096 -0.151591 -0.0328547 0.157727 
4098 2 -0.0292401 -0.173661 0.508616 0.538241 
4298 2 -0.0298017 -0.07003 0.0703618 0.103649 
2545 1 -0.0176572 -0.106707 -0.0853281 0.137764 
3327 1 -0.136985 0.0344828 -0.0753812 0.160113 
3674 2 -0.0488 0.121555 0.29115 0.319258 
1418 1 -0.0283932 -0.118213 -0.0829603 0.147183 
443 1 -0.113475 0.0666755 -0.0835351 0.155885 
855 1 0.0397921 0.0277937 -0.0784939 0.0922886 
2869 1 -0.0888803 -0.0607326 0.0925424 0.141959 
3476 2 0.0160354 -0.0948111 0.0438093 0.105667 
177 1 -0.0247647 -0.0255217 -0.0604202 0.0701088 
363 1 -0.00691095 -0.212541 -0.0535792 0.2193 
1450 1 0.0151198 0.0120229 0.0459836 0.0498764 
3559 2 0.0807021 0.126288 0.05895 0.161049 
347 1 -0.0459521 -0.0656866 0.0496481 0.0942935 
319 1 -0.0977685 -0.0698126 -0.0287412 0.123525 
4237 2 0.03703 -0.014128 -0.0385982 0.0553231 
187 1 -0.248975 0.130735 0.283877 0.399583 
875 1 0.153771 -0.0969756 -0.00631169 0.181906 
830 1 0.03924 -0.0743363 -0.00949352 0.0845919 
937 1 0.0742843 -0.0428462 -0.170767 0.19109 
268 1 0.0133439 0.0247369 0.0245203 0.0372991 
854 1 -0.135566 -0.131721 -0.0775981 0.204329 
442 1 0.0699552 -0.168715 0.00802442 0.182819 
501 1 0.206049 -0.161715 0.130533 0.292654 
3291 1 0.0591431 -0.113516 -0.0161965 0.12902 
3070 1 0.0353439 -0.139105 0.00378648 0.143575 
314 1 0.103424 -0.174907 -0.158779 0.257876 
899 1 0.110977 -0.0647378 0.000825955 0.128482 
474 1 0.061295 0.27378 -0.0648988 0.287966 
964 1 -0.0287595 -0.0253015 -0.128819 0.134393 
793 1 0.0827191 -0.10032 -0.0145009 0.130831 
419 1 0.290469 -0.521152 0.725347 0.939201 
1337 1 0.206724 -0.179001 0.0428187 0.276785 
3544 2 0.101831 0.172021 0.107039 0.226755 
1430 1 0.0747546 -0.1676 0.0751647 0.198312 
3200 1 0.0526603 0.11794 0.0823742 0.153194 
757 1 0.0991548 -0.0449153 0.0108423 0.109392 
822 1 0.225376 -0.111436 0.211084 0.328281 
3278 1 0.12652 -0.16858 -0.128163 0.246682 
3643 2 0.0649081 -0.114537 -0.0812235 0.15469 
329 1 -0.0258347 0.0387795 -0.0651122 0.0800679 
3383 1 -0.109235 0.0305362 -0.0402678 0.120358 
208 1 -0.0327239 -0.277357 -0.178826 0.331627 
3240 1 0.0131868 0.153582 0.227892 0.27513 
113 1 -0.0202284 0.0106228 -0.0688802 0.0725708 
504 1 -0.0846272 -0.0720516 0.153808 0.189763 
699 1 -0.130717 -0.124228 0.0222171 0.181695 
3678 2 -0.187477 0.0484626 0.0505061 0.200117 
491 1 -0.0446283 0.0174026 -0.0287682 0.0558761 
2795 1 -0.139747 -0.00635398 0.125535 0.187959 
581 1 -0.0675107 -0.0422518 0.0978377 0.126155 
3541 2 -0.0168968 -0.00268065 0.0341505 0.0381961 
786 1 0.0384778 -0.025916 0.0281313 0.0542545 
800 1 0.0406542 -0.216328 -0.0397187 0.22367 
367 1 -0.0225339 -0.0533574 -0.0103581 0.0588394 
2687 1 0.0330164 -0.0902487 0.00125745 0.0961067 
3545 2 0.0417194 0.0950134 -0.248831 0.269601 
783 1 -0.238918 -0.0883089 -0.121602 0.282254 
4028 2 -0.0761065 -0.159724 0.00149365 0.176936 
3434 1 -0.118864 -0.0382593 0.0304933 0.128539 
2814 1 0.0235539 0.152412 -0.0208747 0.155628 
1723 1 0.00302158 -0.0509623 -0.0819014 0.0965097 
3264 1 0.123638 -0.17159 0.115294 0.240878 
440 1 0.0568942 -0.0264895 0.102005 0.119765 
431 1 0.0848983 0.0516171 0.0741006 0.123947 
968 1 0.0212488 -0.0217301 -0.113587 0.117583 
4143 2 -0.0764665 -0.0293889 -0.312561 0.323118 
801 1 0.0321595 -0.28076 -0.0561021 0.28811 
2656 1 0.046491 -0.109726 0.119713 0.168915 
421 1 -0.0808021 -0.0734809 0.0164959 0.110456 
308 1 0.130778 -0.148505 -0.00577778 0.197965 
3397 1 0.0610609 -0.0551305 -0.0337971 0.0889385 
2884 1 -0.0266657 -0.0696774 -0.102957 0.127146 
3436 1 0.0284508 -0.219182 0.0264542 0.222599 
3339 1 0.0427969 -0.176744 -0.125968 0.22122 
3192 1 0.0901714 -0.121777 -0.451032 0.475805 
4152 2 0.112325 -0.153105 0.128775 0.229436 
840 1 0.0562822 -0.130177 -0.204246 0.248657 
486 1 -0.0553487 -0.230805 -0.0819372 0.251094 
3371 1 0.090217 0.0429016 -0.243758 0.263434 
461 1 0.0896313 0.0792812 -0.0982995 0.154861 
3378 1 0.225879 0.191806 0.0230622 0.297225 
647 1 0.0824941 0.198136 0.126994 0.24938 
781 1 0.0583406 -0.250888 0.0882113 0.272268 
402 1 0.0499733 0.0219868 0.0509353 0.074667 
3482 2 0.0329229 -0.0493266 -0.0985053 0.11498 
3234 1 -0.197764 0.119751 -0.0833281 0.245753 
128 1 -0.056207 0.164908 0.146144 0.227403 
907 1 0.133738 -0.140258 0.0399888 0.197882 
1641 1 0.0150708 0.112145 -0.117268 0.162958 
1093 1 -0.0532885 0.0054066 0.191527 0.198876 
1300 1 0.113474 -0.0190253 -0.0515174 0.126065 
1535 1 0.152019 -0.0738724 0.0380909 0.173256 
1544 1 0.0723732 0.0479111 0.000720943 0.0867978 
345 1 -0.0826827 0.0290949 -0.0486277 0.100238 
683 1 -0.0278071 -0.147524 0.0300482 0.1531 
573 1 -0.145922 0.082506 0.128654 0.211311 
3844 2 -0.0495567 -0.056551 0.0751465 0.106306 
631 1 0.112581 0.172208 0.100143 0.22882 
606 1 0.0101514 -0.00126075 0.206572 0.206825 
3600 2 0.057778 0.134506 -0.0503555 0.154809 
1569 1 0.00422253 -0.0445984 -0.0660128 0.079778 
1474 1 -0.115146 0.085358 0.19284 0.240275 
1612 1 0.0317966 0.0835203 0.10778 0.140011 
3173 1 -0.107952 0.137183 0.115769 0.209465 
63 1 -0.00799876 0.229757 0.189544 0.297958 