ITEM: TIMESTEP
840
ITEM: NUMBER OF ATOMS
4320
ITEM: BOX BOUNDS pp pp pp
0.0000000000000000e+00 1.9309999999999999e+01
0.0000000000000000e+00 1.9309999999999999e+01
0.0000000000000000e+00 9.6549999999999994e+00
ITEM: ATOMS id type c_displacement[1] c_displacement[2] c_displacement[3] c_displacement[4] 
3196 1 0.0250569 0.00178049 0.0448931 0.0514432 
381 1 0.0349799 0.0446736 0.00491248 0.0569513 
327 1 -0.0107424 -0.0528629 0.0186342 0.0570712 
484 1 -0.0069687 0.148773 -0.0730308 0.165877 
728 1 0.0151556 0.0333256 -0.0909614 0.0980524 
817 1 0.00822533 0.0154663 0.0161175 0.0238041 
3006 1 0.219606 0.0824139 -0.00367972 0.23459 
3679 2 -0.0312019 0.0914303 0.0824642 0.127017 
59 1 -0.0056875 -0.00270752 0.035064 0.0356253 
2945 1 -0.0558727 0.144397 0.0843368 0.176309 
3230 1 0.0816319 0.0252037 -0.00856556 0.0858624 
3651 2 0.203994 0.0695607 0.153492 0.264598 
66 1 0.0319491 0.0969265 0.00338 0.102112 
400 1 -0.0299308 0.0199311 -0.000276559 0.0359607 
677 1 0.012068 -0.00632197 0.00797658 0.015787 
623 1 0.0927559 -0.027975 -0.0858053 0.129417 
87 1 0.119321 0.193518 -0.016686 0.227958 
3199 1 0.0448622 0.033822 0.00206282 0.056221 
727 1 0.236639 -0.0199009 -0.0108142 0.23772 
688 1 0.0745525 0.0292695 0.180579 0.197544 
58 1 0.117992 -0.0182634 0.0937498 0.151805 
3514 2 -0.0640306 0.044821 -0.0408775 0.0882032 
18 1 0.240093 0.158159 0.14473 0.321878 
3618 2 -0.0253952 -0.066554 0.0257363 0.075741 
190 1 0.0582399 0.108135 -0.0743889 0.143592 
298 1 0.0150757 -0.110523 -0.0274524 0.114874 
559 1 0.0818088 -0.0623828 -0.032622 0.107928 
110 1 -0.00558195 0.0314827 0.199452 0.201999 
180 1 0.0721713 -0.0480455 0.0737843 0.113847 
106 1 -0.00639024 0.0725351 -0.00953078 0.0734372 
217 1 0.0772942 -0.0138164 -0.0428868 0.0894682 
775 1 -0.0243126 0.00476022 -0.048834 0.0547587 
3627 2 0.105288 0.115561 -0.0154675 0.157096 
608 1 -0.0132795 -0.0894384 0.0878429 0.126063 
2478 1 -0.0392931 0.12208 -0.00768974 0.128478 
3118 1 -0.0239886 0.075567 0.0159631 0.0808742 
562 1 -0.017597 -0.0424613 -0.0318519 0.055921 
70 1 0.0244688 0.083681 0.0589099 0.105222 
121 1 0.0801459 0.177375 0.0621243 0.204316 
1118 1 -0.0276612 -0.0564817 -0.0258338 0.0679905 
210 1 0.111093 -0.0232871 0.102712 0.153081 
232 1 -0.0666652 -0.00810416 -0.00735207 0.0675572 
4214 2 0.211367 -0.0501715 0.0426664 0.22139 
4170 2 -0.0113703 0.0171685 -0.0153633 0.0256919 
65 1 0.0108692 -0.0129329 0.002689 0.0171064 
226 1 0.284708 -0.0147022 0.135767 0.315765 
532 1 0.0587829 0.0731465 0.141249 0.169579 
3578 2 0.0169436 0.0337944 0.00469396 0.0380944 
473 1 0.0816837 -0.026898 -0.0502493 0.0996028 
246 1 0.105205 -0.00270868 0.0162583 0.106488 
3712 2 -0.0550568 0.0744364 -0.0209766 0.0949318 
155 1 -0.175434 0.0434845 -0.0822095 0.198561 
3460 2 0.0433051 -0.0698786 -0.0873775 0.119972 
4071 2 0.113195 0.235019 0.322426 0.414736 
2838 1 0.164825 0.27808 -0.0256571 0.324275 
536 1 0.0544796 0.123837 0.0353868 0.139842 
894 1 -0.110502 -0.0603572 0.0477285 0.134654 
289 1 -0.0751098 0.0236265 0.0851306 0.115961 
351 1 0.0173676 0.0747615 0.0806108 0.111306 
197 1 -0.0411377 -0.00241904 -0.0595572 0.0724239 
3135 1 -0.0183976 0.157838 0.0348947 0.162693 
303 1 -0.0225108 0.143937 0.0729511 0.162931 
1415 1 0.120184 0.0311209 0.187794 0.225121 
527 1 -0.0953845 -0.0387468 0.209468 0.233402 
3002 1 0.0170656 0.108145 0.190664 0.219862 
3189 1 0.042217 -0.0276399 0.035845 0.0618959 
712 1 0.020357 -0.0478115 0.102678 0.115079 
718 1 0.00813076 0.0729758 0.036564 0.0820274 
3469 2 -0.06783 -0.0464242 -0.100774 0.130044 
4177 2 0.160703 -0.559931 0.256046 0.636324 
93 1 -0.102977 0.00678186 0.21275 0.236459 
569 1 -0.0553989 0.002587 0.178049 0.186487 
639 1 -0.150773 0.1047 0.12092 0.21981 
21 1 -0.0158597 -0.0313039 0.275096 0.277325 
96 1 0.087278 0.125898 0.0822033 0.173854 
3353 1 -0.15575 -0.0354854 0.0309149 0.162705 
823 1 0.0753799 0.0866757 0.00260828 0.114898 
2596 1 -0.000485669 -0.268206 0.0688287 0.276897 
50 1 0.0440318 -0.104008 0.124586 0.168161 
2495 1 0.11228 0.103686 0.10495 0.185397 
28 1 -0.0261866 0.17841 -0.04071 0.18486 
3055 1 0.177538 0.105169 0.0924802 0.226126 
12 1 0.0661645 0.0920851 -0.0175155 0.114735 
3346 1 0.0935489 0.101699 -0.00598631 0.138311 
738 1 -0.00450275 -0.0403629 -0.0744613 0.084817 
2453 1 0.0566374 -0.0237622 0.235768 0.243637 
3167 1 0.0455468 0.00733417 0.0569884 0.073321 
339 1 0.0676814 0.17165 0.0387999 0.188547 
988 1 0.0217886 0.101926 -0.0900496 0.137741 
3251 1 -0.02894 -0.0776419 0.120427 0.14618 
1454 1 -0.00122936 0.0315046 -0.188954 0.191566 
390 1 0.206414 -0.00289796 -0.0019725 0.206444 
203 1 -0.00512028 0.111302 -0.0349007 0.116758 
3582 2 0.061196 0.318129 -0.0762577 0.332815 
3632 2 0.131011 0.199522 -0.177992 0.297748 
231 1 0.119312 0.059356 0.0535405 0.143615 
323 1 0.0617473 0.148371 -0.134402 0.209501 
3244 1 0.110266 0.139928 -0.121496 0.215638 
118 1 0.153847 0.0414821 -0.048113 0.166447 
2735 1 -0.0162353 0.0445598 0.0240029 0.0531535 
2768 1 0.0154876 0.0186416 -0.0120816 0.0270802 
2960 1 -0.138325 -0.0808251 -0.0849856 0.181353 
29 1 -0.0354966 0.0701272 0.0452571 0.0906975 
753 1 0.00479505 -0.112793 -0.0115363 0.113483 
3467 2 -0.0308635 0.0167338 -0.0494786 0.0606688 
4289 2 0.013587 0.0683858 0.0994483 0.121454 
2936 1 -0.150512 0.301665 0.00341787 0.337146 
3478 2 0.18993 0.0680738 0.000314189 0.201761 
725 1 -0.132155 0.0476812 0.120556 0.185128 
4053 2 -0.0380413 0.25685 0.14994 0.299835 
3611 2 0.1141 -0.0302541 -0.0864966 0.146341 
4187 2 -0.0117872 -0.158415 0.128624 0.204398 
437 1 0.113214 0.0909923 -0.0142062 0.145941 
53 1 0.0616176 0.105137 0.035416 0.126905 
593 1 -0.0611173 0.110842 0.157602 0.202138 
609 1 0.0907927 -0.161382 0.0466619 0.190957 
3040 1 0.0868144 -0.0708468 0.190432 0.220953 
546 1 -0.0358112 0.0480548 0.0345392 0.0691712 
167 1 -0.0442597 0.0312749 0.120063 0.131727 
73 1 -0.0924384 0.000557323 0.0727289 0.117621 
610 1 0.106116 -0.0091561 0.0828614 0.134946 
247 1 0.0324657 -0.0824689 0.19347 0.212805 
89 1 -0.138962 -0.0590637 0.0812941 0.171486 
3149 1 0.00444771 0.149629 0.22775 0.272541 
550 1 -0.100837 -0.0405054 0.177612 0.208218 
147 1 0.106455 0.184592 0.336945 0.398671 
3554 2 -0.126251 0.0680357 0.0935383 0.171224 
3786 2 -0.170658 0.229286 0.0622754 0.292531 
5 1 0.0582906 0.115128 0.23891 0.271533 
2591 1 -0.0723527 0.125699 0.105759 0.1795 
3232 1 -0.0392141 0.09259 0.0477216 0.111301 
1215 1 0.134554 0.092064 0.038796 0.167588 
859 1 0.143095 0.146729 -0.0390314 0.208636 
3152 1 -0.149319 -0.074214 0.12363 0.207577 
594 1 0.14418 0.234093 0.101999 0.293243 
920 1 -0.136456 -0.0895593 0.00763249 0.163399 
2461 1 0.067978 0.034437 -0.0821561 0.112056 
23 1 0.011765 0.0727446 -0.0954622 0.120595 
3743 2 -0.0540465 0.0454425 0.0504256 0.0867686 
3023 1 -0.0418084 0.104251 -0.0232923 0.114711 
151 1 -0.0195335 -0.0137881 0.0439306 0.0500157 
43 1 0.0623668 0.0563982 0.00272024 0.0841296 
3730 2 -0.0255236 0.085297 -0.00791219 0.0893847 
424 1 0.0935354 0.0460977 -0.00132207 0.104286 
389 1 0.161352 -0.24586 -0.0419556 0.297055 
3586 2 0.0585786 -0.0207374 0.0888169 0.108397 
737 1 0.120932 0.0474617 0.126106 0.181052 
255 1 0.00238855 -0.0559306 -0.0319283 0.0644465 
453 1 -0.124637 -0.0641482 -0.138075 0.196759 
261 1 0.144661 -0.0602879 -0.0566715 0.166653 
3877 2 0.0329431 0.0794659 -0.0338626 0.0924487 
7 1 0.0460699 -0.000643895 0.0302613 0.0551234 
2500 1 0.0787989 -0.0439035 -1.15769e-05 0.0902041 
3188 1 0.186485 0.187363 0.0627283 0.271692 
3491 2 0.100811 0.151346 0.0240949 0.183437 
717 1 -0.0472119 0.0454165 0.143245 0.157514 
2931 1 0.00437919 -0.0206361 0.0191798 0.0285113 
691 1 -0.0484147 -0.010548 -0.0487826 0.0695341 
215 1 -0.0177666 -0.0987742 -0.0637951 0.118919 
174 1 -0.0193287 -0.129613 0.118845 0.17691 
3493 2 -0.00658949 0.0919326 0.175797 0.198493 
3634 2 0.101972 0.0659692 -0.0899231 0.151117 
2994 1 -0.0900088 -0.05724 0.076673 0.131365 
529 1 0.0578673 -0.151866 0.0849613 0.183386 
1480 1 0.0153428 0.0754307 0.0871039 0.116242 
2968 1 0.0908879 0.189083 0.123906 0.24365 
3464 2 -0.0172487 -0.0446316 0.0170966 0.0508113 
98 1 0.0478391 -0.158654 0.13296 0.212457 
216 1 0.221436 0.0797605 -0.0731317 0.246463 
40 1 0.079712 0.0930014 0.187356 0.223842 
1130 1 0.0059258 -0.0900945 0.057509 0.107049 
1102 1 0.0102097 0.0990747 -0.00174571 0.0996147 
3041 1 0.0685255 -0.0437079 -0.0927483 0.123322 
604 1 -0.035834 0.02076 0.135097 0.141302 
721 1 -0.392385 -0.0387565 -0.042152 0.396541 
3164 1 0.054259 0.210381 0.193298 0.290806 
1179 1 0.134838 0.0464472 -0.0743508 0.160831 
103 1 -0.0784398 0.111131 -0.0330128 0.139974 
64 1 -0.110171 -0.0319954 -0.13651 0.178315 
193 1 0.000929835 0.141738 -0.0905629 0.168203 
44 1 -0.00981406 -0.0762896 -0.0687379 0.103157 
2996 1 -0.0411449 0.0824298 -0.18886 0.210132 
4212 2 -0.0752488 0.300264 -0.0895543 0.322243 
3279 1 -0.0292647 0.133309 -0.127554 0.186809 
257 1 -0.134233 0.0275467 -0.0781899 0.157769 
178 1 -0.0331649 0.039835 -0.180621 0.187912 
330 1 -0.00523266 0.248664 0.0621792 0.256374 
233 1 0.140329 -0.0576614 0.216495 0.264362 
1991 1 0.0638882 0.133124 -0.00961783 0.147974 
600 1 -0.115219 0.0417643 -0.0285116 0.125828 
338 1 -0.167686 -0.0179422 0.20982 0.269193 
4101 2 -0.066799 0.0636243 -0.0187335 0.0941334 
949 1 -0.0353699 0.135127 0.0297576 0.142814 
3608 2 -0.0259088 0.113599 -0.0037134 0.116575 
2995 1 0.0223019 -0.163873 -0.119269 0.203904 
4217 2 -0.144087 0.0270798 0.159701 0.216792 
479 1 -0.12493 0.0903215 0.100158 0.18384 
3335 1 -0.106823 -0.0181278 -0.0228718 0.110738 
1457 1 -0.0635339 -0.0545163 0.0234949 0.0869516 
3037 1 -0.0986078 0.152469 -0.0382764 0.185568 
4253 2 0.0899054 0.080123 -0.238435 0.267122 
387 1 0.0188137 0.0223368 0.0509374 0.0587155 
3736 2 -0.206652 0.125062 0.0750596 0.252942 
3394 1 -0.0685862 -0.0456742 -0.0300575 0.0877135 
508 1 -0.0305352 0.0570163 0.0660038 0.0924108 
3537 2 0.0638182 0.0436229 -0.0904026 0.118947 
747 1 -0.047006 0.0299638 0.0567706 0.0795631 
497 1 0.0959428 -0.0442498 0.0763942 0.130381 
958 1 -0.0752627 -0.0758432 0.0817744 0.13455 
3130 1 0.0185284 0.0305385 0.00317041 0.0358602 
4163 2 0.0193735 -0.0821845 0.116087 0.143547 
3643 2 -0.0234549 -0.0768178 0.0134841 0.0814428 
133 1 -0.00859793 0.0361765 0.134628 0.139668 
4204 2 0.041183 0.0433105 0.17833 0.188078 
86 1 0.232998 -0.0454178 0.221722 0.324825 
759 1 0.101224 -0.0291293 0.11628 0.156894 
3411 1 0.0254883 0.0575401 -0.00798753 0.0634375 
835 1 0.0163287 -0.147463 0.175339 0.229686 
3057 1 -0.0980769 -0.013518 0.141165 0.172422 
3620 2 -0.0198999 -0.17203 0.0243406 0.174879 
241 1 -0.23509 0.0842623 0.00404041 0.249768 
704 1 0.0839085 -0.0127882 0.0423946 0.0948761 
3599 2 -0.385853 0.230336 -0.110482 0.462756 
157 1 0.0313803 0.0196047 -0.0203614 0.0422333 
54 1 0.0668145 -0.20759 0.0870717 0.234817 
493 1 -0.151386 0.251586 -0.0661455 0.300979 
204 1 -0.104585 0.0674667 -0.0874717 0.152122 
254 1 0.0608679 0.225351 -0.317993 0.394471 
67 1 0.0811138 -0.0947504 -0.1439 0.190432 
2988 1 -0.215915 0.255782 -0.238569 0.411046 
3030 1 -0.354731 0.176724 -0.0796573 0.404241 
4050 2 0.0960884 0.194298 0.0821645 0.231809 
3479 2 -0.169364 0.312854 0.052128 0.359554 
674 1 0.0331818 -0.0213332 0.0110162 0.0409572 
2004 1 -0.234959 -0.00926387 -0.0255385 0.236524 
4228 2 0.0183718 -0.148013 0.0654977 0.162897 
3216 1 -0.0823343 0.0987219 0.0135617 0.129263 
234 1 -0.0490488 -0.0394194 -0.118857 0.134487 
1036 1 0.00944889 -0.0921669 0.0571393 0.108853 
3369 1 -0.0607871 -0.0010209 0.0987409 0.115956 
3607 2 -0.219281 -0.0793071 0.192137 0.302143 
3139 1 0.0617623 -0.0718322 0.0985963 0.136732 
644 1 -0.27115 -0.00543325 0.0103613 0.271402 
1278 1 0.0357284 0.143661 -0.0563847 0.158412 
4269 2 -0.0493769 0.158097 0.0140554 0.166224 
3007 1 -0.0433139 0.0461263 -0.0155178 0.0651501 
354 1 0.0935589 -0.0175744 0.0670253 0.116424 
4089 2 0.0466995 0.106899 0.018885 0.118173 
214 1 -0.0154313 -0.0205788 0.0464076 0.0530592 
640 1 -0.199125 0.0532074 0.0913908 0.225464 
199 1 -0.042853 -0.0909362 -0.0702345 0.122632 
245 1 0.00949613 -0.0535408 0.140299 0.150468 
2758 1 -0.364393 0.233049 0.092052 0.44223 
3056 1 -0.201221 -0.149872 0.154366 0.294585 
3468 2 -0.200295 -0.0351376 0.0813842 0.219035 
563 1 -0.0973234 0.123575 -0.0295007 0.160041 
2977 1 0.0376749 0.110222 -0.0698053 0.135798 
1149 1 0.0735814 -0.0497367 0.102438 0.135578 
3916 2 -0.178966 -0.0404755 0.196642 0.268952 
249 1 0.0211156 0.000694654 0.0502427 0.0545039 
3096 1 -0.0734105 0.151964 0.0733068 0.184 
240 1 -0.138686 0.0179919 0.0392514 0.145253 
181 1 -0.0769627 -0.0336643 0.0324114 0.0900391 
46 1 0.0189706 -0.0142872 0.0791267 0.0826138 
3211 1 -0.012396 -0.0410579 0.043431 0.0610382 
2684 1 -0.183673 -0.00195438 0.102324 0.210262 
95 1 -0.150501 -0.0318821 0.107092 0.187445 
551 1 -0.159142 -0.0515104 -0.106549 0.198323 
3512 2 0.0507197 0.0665096 0.10808 0.136665 
3603 2 -0.0167252 -0.0727281 0.0900875 0.116982 
3701 2 0.0832285 0.1251 0.0708825 0.166136 
3513 2 -0.0979276 0.00331723 0.0495979 0.109822 
312 1 0.0133186 0.00260282 0.0760137 0.0772155 
587 1 0.0103558 0.0813009 -0.0222276 0.0849185 
134 1 0.0688203 0.123726 -0.00318213 0.141614 
135 1 -0.0379212 -0.125362 -0.0897815 0.15879 
3003 1 -0.00522551 0.10362 0.010993 0.104332 
191 1 0.132343 0.195529 -0.0886731 0.252209 
685 1 -0.069822 -0.133627 -0.0956728 0.178562 
602 1 -0.0708944 -0.0152309 -0.0329245 0.0796368 
195 1 0.149695 0.121615 0.079311 0.20854 
3092 1 0.0101188 0.00541146 0.0855768 0.0863427 
4195 2 0.0158587 -0.148452 -0.205915 0.254343 
80 1 -0.0988164 0.0364201 0.0392821 0.112402 
540 1 -0.174824 0.193906 -0.2274 0.346228 
2981 1 -0.0815414 -0.0353724 0.0752391 0.116452 
427 1 0.0155604 -0.105167 -0.0580742 0.12114 
4173 2 -0.00137027 -0.0678551 -0.0231577 0.0717111 
2950 1 -0.00832972 -0.206774 -0.0607185 0.215665 
6 1 -0.251744 -0.00382422 0.00438038 0.251811 
182 1 0.0537095 -0.131396 -0.264986 0.300611 
690 1 0.0524197 -0.09382 -0.0249207 0.110323 
3408 1 -0.198822 0.218166 0.109888 0.314963 
902 1 0.0783841 -0.117382 0.0982045 0.17195 
154 1 -0.139016 0.129404 -0.107713 0.218342 
710 1 -0.221617 0.00966131 -0.227164 0.317507 
3115 1 -0.228688 0.0821407 0.147181 0.284091 
742 1 -0.144667 -0.064543 -0.0652938 0.17134 
2926 1 -0.185955 -0.130343 0.125587 0.259501 
446 1 -0.0825831 0.0189629 0.151639 0.173707 
580 1 -0.00493378 0.0407967 0.295907 0.298747 
3518 2 -0.147912 0.177852 0.160146 0.281347 
2939 1 -0.068913 0.101146 0.160912 0.202168 
3841 2 -0.0921319 -0.0770293 0.0137917 0.12088 
2934 1 -0.0751323 0.0231741 0.103797 0.130214 
78 1 0.0992733 0.0862345 0.0644782 0.146455 
3644 2 -0.014988 -0.00105835 -0.0624148 0.0641979 
237 1 0.049814 0.034578 0.129227 0.142747 
4098 2 -0.0251268 0.119582 0.223021 0.254302 
1133 1 0.134442 0.0956139 0.0635035 0.176775 
205 1 -0.141048 0.107825 0.0741801 0.192414 
694 1 -0.0657162 0.193545 0.121014 0.237534 
861 1 0.0557992 0.0341266 -0.192545 0.203351 
3549 2 0.0824148 0.0577979 -0.20615 0.229413 
4014 2 -0.0586086 0.0574275 -0.0252663 0.0858561 
3401 1 0.0390395 0.123214 0.090975 0.158058 
3808 2 0.0322632 0.0427848 0.0114958 0.0548052 
614 1 0.155836 -0.0858892 0.0589552 0.18745 
3341 1 -0.0458652 0.128353 -0.0294611 0.139449 
512 1 0.281069 0.0796932 -0.0146895 0.292518 
300 1 -0.00268126 0.0731837 0.0232084 0.0768223 
393 1 -0.00667647 0.158033 -0.0753224 0.175192 
2740 1 -0.11721 0.20988 0.075715 0.252033 
221 1 0.110526 0.102045 -0.0250546 0.152502 
4006 2 -0.244662 -0.229005 0.153195 0.368472 
286 1 0.0288498 -0.108683 -0.0321118 0.116942 
886 1 0.213799 0.180599 -0.0148256 0.28026 
277 1 -0.324472 -0.00961933 -0.013856 0.324911 
364 1 -0.0777953 -0.0715013 0.162533 0.193859 
1367 1 0.0670941 0.0737029 0.038129 0.106712 
411 1 -0.151237 0.107947 0.109297 0.215572 
3658 2 -0.0721512 0.259062 0.302943 0.405084 
356 1 0.05439 -0.0276437 0.0490094 0.0782583 
626 1 0.160813 -0.0556423 0.0865073 0.190894 
357 1 -0.140114 0.0225343 -0.0850677 0.165457 
265 1 -0.0692988 -0.0124723 -0.0370109 0.0795467 
3389 1 -0.0346157 -0.0590276 0.0137625 0.0697991 
362 1 -0.0735258 0.00681432 -0.0665672 0.0994167 
478 1 -0.0570324 0.130219 0.0997064 0.173641 
4159 2 -0.0824774 -0.0143568 -0.0783348 0.114652 
2696 1 -0.136357 0.034868 -0.00850653 0.141002 
966 1 -0.0313822 0.214318 0.0265195 0.218221 
3612 2 -0.0720176 0.0908582 -0.119534 0.166524 
3392 1 -0.0192706 0.0297973 -0.000778396 0.0354942 
780 1 -0.0893587 -0.0364451 -0.00318485 0.0965575 
924 1 0.00583792 -0.0066906 0.0751092 0.0756323 
2710 1 -0.050058 -0.0674009 -0.0646134 0.105941 
3313 1 -0.0977501 0.0154231 -0.0439677 0.108287 
433 1 -0.0506351 -0.0294088 0.0964664 0.112847 
553 1 -0.021997 -0.0870996 0.0141409 0.0909405 
3333 1 -0.0849492 -0.0400095 0.0565099 0.109592 
3303 1 -0.0157204 -0.0387184 0.0924549 0.10146 
3526 2 -0.157595 0.175052 0.044194 0.239651 
3249 1 0.0292181 0.110377 -0.0101482 0.114629 
92 1 -0.162438 -0.135833 0.143445 0.25576 
3379 1 -0.00442516 -0.0280622 0.0241979 0.0373176 
1449 1 -0.0204674 -0.100965 0.132272 0.167656 
903 1 0.170726 0.249774 0.39256 0.495619 
1077 1 0.0606231 -0.00709957 0.114183 0.129473 
462 1 0.0249876 -0.0495232 0.0464391 0.0723431 
2966 1 -0.0809692 0.0228886 0.154631 0.176042 
3022 1 -0.0223154 0.116266 0.106805 0.159446 
750 1 -0.03166 0.0178508 -0.0311702 0.047881 
3162 1 0.0771759 0.219415 -0.106375 0.255763 
449 1 0.0444144 -0.0187694 -0.029149 0.0563435 
3482 2 -0.262086 -0.15908 0.0443561 0.309779 
287 1 0.120658 -0.0722373 -0.0218181 0.142312 
3647 2 0.0872997 0.0554063 0.0795199 0.13044 
2890 1 0.167959 0.0485414 0.126861 0.216009 
1285 1 0.0914894 0.0612033 0.0752079 0.133313 
943 1 0.0663351 0.092811 0.0991143 0.151122 
3305 1 0.065894 0.153178 0.035121 0.170408 
3209 1 0.265597 0.110944 -0.117547 0.310915 
4154 2 0.0351416 0.166823 -0.0437291 0.176003 
3257 1 0.230682 -0.102641 -0.0492793 0.257251 
4318 2 -0.211067 -0.0921048 0.101983 0.251859 
3883 2 0.135442 0.169122 0.149573 0.263285 
3531 2 -0.0382928 -0.0560764 -0.0798473 0.104816 
3227 1 -0.0956492 -0.140263 0.0678233 0.182818 
373 1 -0.0208227 0.125999 0.0057276 0.127836 
4297 2 -0.0204459 -0.0285828 -0.0725922 0.0806514 
3404 1 -0.0547197 -0.109252 0.0553197 0.134129 
398 1 0.111817 -0.0711055 0.0332909 0.136628 
2732 1 0.0354646 -0.00726344 -0.039539 0.0536081 
3221 1 0.0893879 0.0630664 -0.0920883 0.142996 
836 1 -0.0168398 -0.103232 0.0265703 0.107919 
309 1 -0.0331849 0.11887 0.115615 0.16911 
394 1 0.180099 -0.018135 0.145799 0.232426 
412 1 -0.0130132 0.0702989 0.110517 0.131625 
1212 1 -0.0331768 0.0793531 0.10542 0.136055 
3573 2 -0.180155 0.169053 0.0657669 0.255656 
3360 1 -0.150331 -0.0282653 -0.0598678 0.164263 
3319 1 0.000367049 -0.0021197 -0.0154589 0.0156079 
3588 2 -0.182271 0.0067471 0.128598 0.223172 
2365 1 -0.100324 0.122159 -0.204907 0.258795 
306 1 -0.120834 0.0162256 0.10755 0.162577 
3093 1 -0.0643811 0.0403783 -0.0532578 0.0927994 
2745 1 -0.13491 -0.0129515 -0.094659 0.165314 
355 1 -0.0763579 -0.0686697 0.0589867 0.118429 
3097 1 0.0331815 0.0385887 -0.020869 0.0550056 
3197 1 -0.108363 0.0129093 -0.138869 0.176617 
228 1 -0.194585 0.0154748 0.0371819 0.198709 
3324 1 0.0246123 0.139432 -0.101342 0.174118 
951 1 -0.0511634 -0.0326509 -0.0383319 0.0717852 
2737 1 -0.159175 -0.0322242 -0.0273 0.164683 
2959 1 -0.00508314 0.134645 -0.181467 0.226021 
4284 2 -0.147933 -0.056671 -0.00315453 0.158448 
4225 2 0.273625 -0.0134589 0.0284436 0.275429 
332 1 -0.123233 -0.0350195 -0.0581506 0.140692 
3290 1 0.0170379 0.0278796 -0.125581 0.129762 
716 1 0.13101 0.103347 -0.127349 0.20991 
353 1 0.0302366 -0.104079 0.0907189 0.141338 
601 1 -0.102501 0.0145823 0.00983612 0.103999 
3094 1 0.0984866 0.0147444 0.0695271 0.121454 
3617 2 -0.0338614 -0.108273 -0.00681957 0.11365 
206 1 -0.0288747 -0.0493356 0.0472574 0.0741688 
71 1 0.0910263 -0.0245352 -0.00238493 0.0943051 
3676 2 -0.0151158 0.0218942 -0.00510006 0.0270897 
3192 1 -0.00790843 -0.0666423 0.0713338 0.09794 
4185 2 0.0987279 -0.113708 -0.0132364 0.151168 
3483 2 -0.0996222 0.149367 -0.141043 0.228316 
763 1 0.019125 0.0398837 0.132686 0.139864 
3561 2 0.0260012 -0.0237446 0.154208 0.158177 
3409 1 -0.0463762 -0.11597 -0.0296752 0.128376 
388 1 0.041264 0.110949 0.15405 0.194277 
1313 1 0.00588967 0.076058 0.0933236 0.120535 
444 1 0.119636 0.111718 -0.0490651 0.170883 
3668 2 0.0985066 0.114227 0.0342524 0.154676 
838 1 0.0922174 0.0577747 0.0963179 0.145324 
460 1 0.0383348 -0.0733415 0.103483 0.132504 
499 1 -0.0359525 -0.00724409 -0.00234654 0.03675 
3548 2 -0.582754 -0.0393589 -0.134635 0.599398 
291 1 0.116938 0.00928264 -0.0178854 0.118662 
482 1 0.0477834 0.0553502 -0.101011 0.1247 
1314 1 0.0920994 0.114515 0.162063 0.21877 
3672 2 0.0723808 0.044754 -0.0259791 0.0889765 
375 1 0.108158 -0.0245964 -0.0700427 0.131184 
94 1 0.180985 0.00843349 0.0445341 0.186575 
3281 1 0.121912 0.0639776 0.0302435 0.140962 
37 1 -0.00932692 -0.0246209 0.0314313 0.0410013 
3321 1 0.0385535 -0.147602 0.0229739 0.154274 
2961 1 0.226096 0.0486416 -0.0818816 0.245336 
3393 1 0.0683572 0.00493562 -0.0140306 0.0699566 
901 1 -0.11709 -0.0928718 -0.0859686 0.172412 
4309 2 -0.0412945 0.0284801 0.0998072 0.111704 
392 1 -0.0800294 -0.122328 -0.0621121 0.15883 
436 1 0.0054857 -0.0879722 -0.0255879 0.0917821 
792 1 -0.16587 0.0351322 0.14016 0.219982 
3293 1 -0.134691 0.0448896 0.0149189 0.142756 
3320 1 0.00249264 -0.147982 0.102542 0.180055 
3095 1 -0.0873251 -0.00464811 0.0230842 0.0904442 
318 1 -0.0613743 0.0301472 0.157868 0.172041 
3350 1 0.0571805 -0.100435 0.0905492 0.146819 
3314 1 -0.088278 0.0423411 -0.0752447 0.123481 
2861 1 0.0239351 -0.0335703 0.0520015 0.0663627 
3180 1 -0.0818462 -0.0327549 0.0190424 0.0901903 
3150 1 0.0336813 0.0522927 0.102091 0.119547 
2479 1 0.121381 0.0395683 -0.0473173 0.136154 
3664 2 0.155704 -0.109624 0.0846109 0.208375 
100 1 0.0338657 0.037573 -0.0113295 0.051836 
3301 1 -0.0575027 0.0026019 -0.110106 0.124244 
1324 1 -0.0697874 0.0794749 -0.0606245 0.121909 
4116 2 0.0203528 -0.195862 -0.00519418 0.196985 
468 1 0.0972923 0.0199421 0.21033 0.232599 
4056 2 -0.278554 0.0239228 0.293368 0.405253 
4257 2 0.254688 0.336454 -0.209929 0.471315 
1145 1 -0.00473853 0.114046 0.212559 0.241269 
4271 2 0.000627442 0.0442924 0.0395675 0.0593953 
1172 1 0.118122 -0.0729134 0.00673686 0.138977 
652 1 0.165199 0.00175822 0.0196724 0.166376 
3568 2 0.0585621 -0.0217705 0.0682233 0.0925089 
3433 1 0.230014 0.0200386 -0.0410125 0.234499 
3419 1 0.0470826 0.0711222 0.0429435 0.0954949 
248 1 0.123479 0.0315695 -0.0081681 0.127712 
3560 2 0.1286 -0.0544886 0.0269276 0.142239 
1304 1 0.176839 -0.103621 0.0100953 0.20521 
275 1 0.146456 0.0661234 0.0331894 0.164083 
917 1 -7.62775e-06 0.00567326 0.0101121 0.0115948 
2969 1 0.199418 0.0872049 0.154273 0.266782 
325 1 0.0381049 -0.0557528 0.101778 0.122144 
292 1 0.0430175 -0.0069103 0.0641795 0.077571 
3444 1 0.17923 -0.0900662 -0.0204067 0.201622 
908 1 0.191218 -0.0883173 0.046439 0.215687 
3504 2 0.37901 -0.00822502 0.0237057 0.37984 
423 1 0.184474 -0.0850145 -0.14364 0.248778 
502 1 0.0906995 0.1155 0.076273 0.165481 
3435 1 -0.00185581 0.0461176 0.204159 0.209311 
430 1 -0.138823 -0.0129135 0.156308 0.209453 
439 1 0.101573 -0.086061 0.193789 0.235113 
3331 1 -0.00588604 -0.0130121 0.176703 0.17728 
4182 2 -0.143701 -0.412228 -0.0482479 0.439215 
874 1 0.290633 -0.132271 0.1257 0.343167 
980 1 0.0473729 -0.195969 0.143995 0.247756 
810 1 0.0974561 0.115408 -0.00908452 0.151325 
3312 1 0.11444 -0.0947691 -0.00359201 0.148629 
3383 1 0.0695861 0.149234 0.076298 0.181478 
225 1 0.00900963 -0.140784 0.00244482 0.141093 
4280 2 0.198351 0.26644 -0.138376 0.359835 
416 1 0.0386994 -0.171713 0.158067 0.236576 
365 1 0.085791 0.0039199 0.122037 0.149226 
3799 2 0.169476 -0.16048 -0.164805 0.285721 
2819 1 0.103138 -0.148818 0.194334 0.265613 
382 1 0.000459537 0.155413 -0.0182833 0.156486 
404 1 -0.0488478 -0.0493652 -0.030069 0.0756781 
2776 1 0.0307055 -0.00177968 0.179437 0.182054 
2973 1 -0.182826 0.0584629 0.109261 0.220865 
957 1 -0.0679271 -0.0173491 -0.0504325 0.0863627 
795 1 0.008467 -0.0387131 0.0621638 0.0737206 
490 1 0.00872182 0.0335143 -0.0248868 0.0426454 
3266 1 -0.0608827 0.0294719 0.117012 0.135155 
4285 2 0.00713205 0.0257197 0.106459 0.109754 
496 1 -0.154962 0.179069 0.0765425 0.248873 
2993 1 0.0262601 0.147309 0.0765198 0.168062 
4256 2 -0.125895 0.122737 -0.0999044 0.202225 
471 1 -0.111862 0.228079 0.0922577 0.270268 
517 1 0.0808598 0.108319 0.0354676 0.139747 
279 1 -0.0157245 0.367274 0.110573 0.38388 
4264 2 0.207965 0.0214696 0.0613502 0.217886 
3420 1 -0.0226266 -0.0958695 -0.0205122 0.100616 
4028 2 -0.0229009 -0.102684 0.0428359 0.113593 
183 1 -0.198591 -0.0662578 -0.179645 0.275864 
3322 1 -0.00449053 0.127821 0.00782528 0.128139 
3863 2 -0.139347 0.0325937 0.0574302 0.154202 
274 1 0.0181629 -0.0406788 0.000343981 0.0445508 
1091 1 -0.00531243 0.0378227 0.114084 0.120307 
3396 1 0.0280241 0.042428 0.107475 0.118897 
699 1 -0.0634203 0.0669067 -0.092582 0.130653 
329 1 -0.218591 0.114528 -0.10537 0.268331 
2545 1 -0.171845 -0.0923819 -0.0514581 0.201775 
3327 1 -0.0683019 0.0863684 -0.0952789 0.145612 
3674 2 -0.113939 -0.147583 0.127742 0.226011 
1418 1 -0.0704334 -0.0367597 0.0138677 0.0806502 
443 1 -0.0747423 0.0555537 -0.0603165 0.110954 
855 1 0.000854327 0.018209 -0.246685 0.247358 
3082 1 0.0500315 -0.0839882 0.129143 0.161972 
3476 2 0.0297616 0.197701 0.232626 0.306735 
2869 1 -0.0205944 -0.0057923 -0.122995 0.124841 
4307 2 -0.0459556 0.0186773 0.0107335 0.0507539 
177 1 -0.0412213 0.107055 0.0115106 0.115293 
363 1 -0.0362947 -0.0269713 -0.0205543 0.0496713 
1450 1 -0.0421094 0.125092 0.034096 0.136322 
3559 2 -0.05278 0.108505 0.145304 0.188871 
347 1 0.106265 0.0684235 0.21925 0.25307 
4237 2 0.027249 -0.094554 -0.109158 0.146964 
319 1 -0.0545839 0.0287941 0.0434915 0.0754984 
830 1 0.0621124 0.0634228 0.0250617 0.0922415 
295 1 0.0859972 -0.011096 -0.099869 0.132259 
937 1 0.0244461 0.0872271 0.0523165 0.10461 
268 1 0.152525 0.0428889 0.127323 0.20326 
854 1 -0.128161 0.127278 0.0361646 0.184209 
442 1 0.0821174 0.00313537 -0.0697812 0.107808 
875 1 0.0454657 0.0569129 0.135763 0.154071 
501 1 0.12575 0.091722 0.151375 0.217118 
3378 1 0.0219936 0.255303 0.0368276 0.258881 
3291 1 0.207018 -0.0181806 0.0435499 0.212329 
314 1 -0.176563 -0.0268935 0.220156 0.28349 
474 1 -0.150572 0.0448529 -0.139788 0.210296 
3070 1 -0.0488655 0.0643241 0.0144495 0.0820622 
964 1 -0.326861 0.044513 -0.0332375 0.331548 
793 1 -0.245664 -0.0420028 0.0399831 0.252415 
3397 1 -0.214604 0.0969409 -0.0504178 0.240821 
899 1 0.00916298 -0.0908588 0.0105726 0.0919297 
1337 1 0.016488 -0.0254031 0.0798462 0.0853967 
3278 1 -0.0377995 -0.16927 9.7219e-05 0.17344 
3544 2 -0.0161672 -0.076782 0.0715968 0.106221 
1430 1 -0.0888054 0.00596132 0.155065 0.178794 
3200 1 0.0390206 -0.000494945 0.248615 0.251659 
757 1 0.0120235 0.00866308 0.205254 0.205789 
822 1 -0.118325 -0.0208065 0.269623 0.295179 
819 1 0.0199855 -0.0469907 0.0125959 0.0525947 
1289 1 -0.0416909 0.171412 0.171938 0.246339 
1354 1 -0.153506 0.0702148 0.203495 0.264395 
3240 1 -0.206897 -0.0353345 -0.0226687 0.211113 
113 1 0.147597 0.0671266 0.00911188 0.162401 
504 1 -0.0299959 0.102664 0.0526474 0.119211 
2795 1 -0.14473 -0.0334678 0.185018 0.237273 
781 1 -0.0116923 -0.0395405 0.178148 0.182858 
581 1 -0.0999421 -0.0367279 0.0308032 0.110843 
3541 2 -0.0136382 0.0902482 0.00615688 0.0914803 
786 1 0.0346739 0.0119232 0.055877 0.0668332 
800 1 -0.000414122 -0.0227574 -0.0440233 0.0495592 
367 1 0.214181 -0.016735 0.0155571 0.215396 
2687 1 -0.0547216 0.0063947 0.00261573 0.055156 
3545 2 0.0335358 0.0161953 -0.0651674 0.0750581 
491 1 0.0515002 0.0047144 -0.0375655 0.0639191 
840 1 -0.19892 0.0349696 -0.210493 0.291718 
187 1 -0.145729 -0.019406 0.113674 0.185837 
2814 1 -0.0513424 0.159297 0.0306714 0.170153 
1723 1 0.0399339 -0.0435031 -0.223827 0.231486 
3264 1 0.20208 0.0365247 0.113263 0.234518 
440 1 -0.0423826 0.0886963 0.185116 0.209598 
431 1 0.0645597 -0.0896796 0.182085 0.212991 
402 1 0.00359169 -0.19615 0.193877 0.275819 
968 1 0.0422613 -0.121576 0.213317 0.24914 
801 1 -0.0837117 -0.340114 -0.0374199 0.352257 
2656 1 -0.0571727 0.194782 -0.057945 0.211108 
421 1 -0.0525198 -0.0802605 -0.182789 0.206427 
4152 2 -0.1897 0.199424 0.0221437 0.276127 
461 1 -0.0738633 0.247969 -0.0369983 0.261368 
647 1 0.0303706 0.153483 0.104916 0.188379 
3436 1 -0.130439 -0.00357715 0.0913206 0.159269 
3371 1 -0.114111 0.255371 -0.0724912 0.288947 
486 1 -0.117601 0.200376 0.133121 0.267772 
308 1 0.00692809 -0.0451082 -0.0323945 0.0559656 
307 1 -0.083808 0.00635968 0.0498711 0.0977311 
85 1 0.166147 -0.011671 -0.0138829 0.167134 
4143 2 -0.207282 -0.153691 0.134167 0.290839 
2873 1 -0.115368 -0.0844264 0.0592412 0.154749 
2884 1 -0.173338 -0.0523968 0.0304083 0.18362 
3339 1 -0.234637 0.0530631 0.105766 0.262787 
3535 2 0.06066 0.078228 -0.0382699 0.106131 
825 1 0.072216 -0.133804 0.24883 0.291608 
1254 1 -0.0522858 0.0604353 0.0982979 0.126684 
3380 1 0.122819 -0.181758 0.183216 0.285812 
349 1 -0.0262644 0.0365597 0.0556551 0.0715815 
3487 2 0.0548079 0.0450376 0.0801576 0.10704 
3678 2 -0.0989074 0.022522 0.111377 0.150648 
654 1 0.0404911 -0.00460835 0.0508616 0.0651741 
771 1 -0.0326598 0.0574971 0.106659 0.125494 
3434 1 -0.0219936 -0.0503433 0.0786329 0.0959234 
3234 1 -0.189723 0.012968 -0.0444804 0.195298 
128 1 0.031788 0.147194 -0.0310147 0.153748 
907 1 -0.0282009 -0.129129 0.0462299 0.140024 
1641 1 -0.0248582 0.040646 0.00886468 0.0484624 
885 1 -0.0979793 -0.0818506 -0.27771 0.30565 
1300 1 -0.0222927 -0.0608105 -0.0891936 0.110229 
1934 1 0.040091 -0.0397065 0.038477 0.0682962 
891 1 -0.171597 -0.0433936 -0.027696 0.179153 
3778 2 -0.0803687 -0.0516804 -0.0226937 0.098209 
1269 1 -0.137844 -0.234729 0.195843 0.33534 
1535 1 0.0156745 -0.0707094 0.00482139 0.0725862 
573 1 -0.0811305 -0.0369667 0.0705537 0.113695 
3844 2 -0.0240333 -0.000831531 -0.112797 0.115332 
631 1 0.0172364 -0.00186336 0.133945 0.135063 