ITEM: TIMESTEP
300
ITEM: NUMBER OF ATOMS
4320
ITEM: BOX BOUNDS pp pp pp
0.0000000000000000e+00 1.9309999999999999e+01
0.0000000000000000e+00 1.9309999999999999e+01
0.0000000000000000e+00 9.6549999999999994e+00
ITEM: ATOMS id type c_displacement[1] c_displacement[2] c_displacement[3] c_displacement[4] 
3196 1 0.0705223 0.0348457 0.1437 0.163821 
381 1 0.0341326 0.0351968 0.0480361 0.0686391 
327 1 0.0406398 -0.00116711 -0.13675 0.142666 
484 1 -0.102856 -0.00385322 -0.225846 0.248194 
728 1 0.0110951 -0.00557616 -0.159002 0.159487 
817 1 -0.0590625 -0.0449654 0.0936902 0.119533 
3006 1 0.216135 -0.0440654 0.10993 0.246456 
3679 2 0.144546 -0.0908864 0.0818638 0.189356 
594 1 0.199432 -0.00206924 0.0270024 0.201262 
2945 1 -0.147984 0.0536987 -0.103148 0.188208 
3230 1 -0.0365037 -0.0113628 0.05001 0.0629494 
3651 2 -0.154319 0.023404 0.0199119 0.157349 
66 1 -0.0753059 0.0197052 -0.105967 0.131485 
400 1 -0.122527 0.0360464 -0.138455 0.188367 
677 1 0.118034 0.0857428 0.0503687 0.15434 
623 1 -0.0214858 0.0413098 0.0227113 0.0518068 
87 1 -0.0353488 0.0860684 0.00949348 0.0935278 
3199 1 0.149908 -0.00655562 -0.149903 0.2121 
727 1 -0.0906645 -0.132867 -0.114131 0.19723 
688 1 -0.00277902 0.0706455 0.0504268 0.0868411 
58 1 -0.0665601 -0.110975 0.0875162 0.15622 
3514 2 -0.0845474 0.0171384 -0.11778 0.145994 
18 1 -0.0241455 0.0863769 0.136509 0.163336 
3618 2 -0.282589 -0.0013813 0.222074 0.35941 
190 1 -0.0658748 -0.0198921 -0.111238 0.130802 
298 1 -0.0735264 -0.0897685 0.0302853 0.119924 
389 1 0.242369 -0.261288 0.0399231 0.358619 
110 1 0.0291728 -0.149504 0.0295131 0.155157 
180 1 -0.00953405 -0.0394367 0.0875186 0.0964658 
106 1 -0.0463548 -0.0543689 -0.127027 0.145742 
217 1 -0.0136764 0.000539345 -0.0296547 0.0326609 
775 1 0.0259188 0.0441459 -0.133744 0.143207 
3627 2 0.0531963 0.0558263 -0.106763 0.1317 
608 1 0.0311944 -0.0854677 0.0169381 0.0925458 
255 1 0.0348892 -0.0110022 -0.0806847 0.0885908 
3118 1 0.0323237 0.0722203 -0.145532 0.16565 
562 1 0.108299 0.0606013 -0.0648889 0.140042 
70 1 0.037115 -0.0162352 0.00873751 0.0414421 
121 1 0.123287 -0.0572813 -0.147416 0.20053 
1118 1 -0.0536452 -0.197848 -0.111244 0.233231 
210 1 0.0351527 -0.143871 0.120414 0.190877 
232 1 0.00247614 0.0941992 0.00842069 0.0946072 
4214 2 0.0753356 0.0561913 0.0584848 0.110695 
4170 2 0.0947967 0.0513094 0.0603947 0.123558 
65 1 0.0456612 -0.0121454 -0.0876331 0.0995591 
226 1 0.176734 -0.0126287 0.0979297 0.202446 
532 1 -0.00199902 0.116988 0.201687 0.233169 
3578 2 -0.0169466 0.0655795 0.010397 0.0685271 
473 1 0.0233412 -0.147403 -0.0375888 0.153901 
246 1 0.0600936 0.0359523 0.100259 0.122293 
3712 2 0.050589 -0.0106081 -0.0979915 0.110789 
155 1 -0.210641 -0.00868218 -0.113516 0.239439 
3393 1 -0.0488146 -0.0433487 0.0382123 0.0756449 
4071 2 0.0246924 0.240207 0.429994 0.493157 
2838 1 0.104806 0.202275 -0.151001 0.273314 
536 1 -0.0401362 0.0456396 0.0574848 0.0836563 
894 1 -0.103978 0.0414033 0.144809 0.183017 
289 1 -0.098375 0.0487425 0.0386119 0.11638 
351 1 -0.0941935 0.0244589 0.0636568 0.116288 
197 1 0.100475 -0.0660086 -0.0737416 0.141033 
3135 1 0.00835124 0.096483 0.160543 0.187491 
303 1 -0.21238 0.0135161 0.108806 0.239012 
1415 1 -0.00283841 0.0567845 0.0884717 0.105165 
527 1 -0.145541 -0.0782067 0.1352 0.213489 
3002 1 -0.192139 -0.02468 0.100017 0.218014 
3189 1 -0.112783 -0.05667 -0.0535942 0.137127 
712 1 -0.163299 -0.100432 0.0434276 0.196568 
718 1 -0.185549 0.0693411 -0.0467308 0.20352 
3469 2 -0.0849759 0.122547 -0.0820166 0.170192 
4177 2 0.0320392 -0.372317 0.151518 0.403242 
93 1 -0.122076 0.246738 0.238097 0.363967 
569 1 -0.0158751 -0.0162653 0.0121825 0.0257875 
639 1 -0.374169 0.159405 0.0533776 0.410197 
21 1 -0.106047 -0.014981 0.128975 0.167645 
96 1 -0.0198826 0.0383602 -0.0813 0.0920679 
3353 1 -0.276746 -0.135321 -0.0185893 0.308619 
823 1 0.189351 -0.0191277 -0.0418831 0.194869 
2596 1 0.0135824 -0.2392 0.0233864 0.240724 
50 1 0.0241102 -0.114998 0.135332 0.179223 
2495 1 0.111629 0.125052 0.143224 0.220482 
28 1 0.00698332 0.0433331 -0.0429602 0.0614174 
3055 1 0.0905326 -0.00947498 0.035244 0.0976118 
12 1 0.245588 0.151518 -0.180867 0.340564 
3346 1 0.133155 0.087823 0.0401413 0.164482 
738 1 0.175143 -0.0725912 -0.0620591 0.199489 
2453 1 0.199387 0.00571129 0.0108172 0.199762 
3167 1 0.164079 -0.153738 0.103376 0.247475 
339 1 0.0930107 0.121454 0.0926652 0.178854 
988 1 0.09151 0.0083861 -0.19484 0.215423 
3586 2 0.00921951 -0.0144545 0.0320612 0.0363573 
1454 1 -0.0790152 -0.0626724 0.092168 0.136624 
390 1 0.207963 -0.0797246 0.155314 0.271527 
203 1 0.0857076 -0.0694682 0.0560011 0.123724 
3582 2 0.0427234 0.107562 -0.0395821 0.122318 
3632 2 0.0735367 0.0576136 -0.048652 0.105328 
231 1 0.0436361 -0.0901049 0.108431 0.147582 
323 1 0.0189826 0.106126 -0.0758661 0.131829 
3244 1 0.074761 0.057486 -0.006222 0.0945122 
118 1 0.0652071 0.00724414 0.0581273 0.087654 
2735 1 -0.193366 -0.0530006 -0.0917664 0.2205 
2768 1 -0.0591817 0.0177128 0.0530789 0.0814468 
2960 1 -0.144952 -0.0273248 -0.0116059 0.14796 
29 1 -0.134413 0.108273 0.0531481 0.180595 
753 1 -0.0249215 -0.140888 0.0828548 0.165334 
3467 2 -0.120149 0.0156032 0.0147591 0.122054 
4289 2 -0.0122636 0.0798896 0.179364 0.196734 
3251 1 -0.101425 -0.0148045 0.0740186 0.126432 
3478 2 0.170275 0.107526 0.0195269 0.202329 
725 1 -0.177922 0.0186366 0.0562841 0.187541 
1133 1 -0.0575319 0.0722844 -0.0473721 0.103822 
3611 2 0.222514 0.018073 -0.00901675 0.223429 
4187 2 -0.264926 -0.118672 -0.0837725 0.302137 
437 1 -0.116609 0.0247729 -0.0873397 0.147782 
53 1 0.0138568 -0.0131707 0.0112574 0.0221857 
593 1 -0.063198 0.0222052 -0.0656118 0.0937655 
609 1 0.036197 -0.0591772 0.0956731 0.118176 
3040 1 -0.028929 0.0522877 0.0122164 0.0609929 
737 1 0.11103 0.116646 0.0499811 0.168618 
167 1 -0.0414255 0.0889197 0.106432 0.144743 
3460 2 0.157687 -0.0440203 -0.0287544 0.166222 
610 1 -0.068502 -0.0667952 0.220794 0.240633 
247 1 0.0272166 -0.0194216 0.101694 0.10705 
89 1 -0.135842 0.0343739 0.151718 0.206526 
3149 1 -0.0683546 0.00389038 0.309714 0.317191 
550 1 -0.047277 -0.0686638 0.0511583 0.0978111 
147 1 -0.0426613 0.0182535 0.208052 0.213164 
3554 2 -0.0478273 0.00439575 -0.00876504 0.0488221 
3786 2 -0.188373 0.153231 -0.035809 0.245451 
5 1 0.0635134 0.0457474 0.0270612 0.0828197 
2591 1 0.0800129 0.0231068 0.0652697 0.105812 
3232 1 0.0416594 -0.0486322 -0.0882007 0.108995 
1215 1 0.0778629 0.0619314 -0.00284983 0.0995302 
859 1 0.141025 0.0919446 0.0515743 0.176073 
3152 1 -0.155167 -0.042802 0.197266 0.254603 
2936 1 -0.0832668 0.290986 -0.0244486 0.303651 
59 1 0.0533876 -0.0267117 0.0714864 0.0931346 
2461 1 0.0149881 0.002093 0.0573753 0.0593376 
23 1 0.0788752 -0.0757116 -0.0477136 0.11929 
3743 2 0.0112299 0.145353 0.00979499 0.146115 
3023 1 -0.0039895 0.0496605 -0.0625606 0.0799744 
151 1 0.0827513 -0.0603856 0.120897 0.158462 
43 1 0.109193 -0.0249369 0.00508349 0.11212 
3730 2 -0.00625485 0.130348 0.056563 0.142229 
424 1 0.0576391 0.110585 -0.062794 0.139622 
3808 2 0.15653 -0.0341215 0.0921685 0.184827 
626 1 0.123546 0.0408827 -0.00902345 0.130447 
233 1 0.00326091 0.102356 0.164472 0.193749 
2500 1 0.000743352 0.0565098 -0.0734015 0.0926374 
3188 1 0.0339229 0.140198 -0.00156659 0.144253 
3491 2 0.0104531 0.0649148 -0.115024 0.132491 
717 1 -0.149351 0.0453877 0.0561064 0.165872 
2931 1 -0.111542 -0.107907 -0.00528873 0.155285 
691 1 -0.137401 0.0601708 -0.0237135 0.151862 
825 1 -0.00906619 -0.104434 0.118908 0.158517 
174 1 0.0668772 -0.127301 0.00492592 0.143883 
4228 2 -0.0598877 0.0928715 -0.057196 0.124431 
3634 2 0.0446057 0.171851 0.0576412 0.186668 
2994 1 0.0764845 0.00179387 -0.0485548 0.0906127 
529 1 0.032759 -0.117475 0.0170188 0.123139 
1480 1 -0.0315124 -0.103566 0.143337 0.179623 
2968 1 0.0207698 -0.0201065 -0.0458435 0.0541968 
3464 2 -0.119014 0.0141514 0.101361 0.156967 
98 1 0.0669293 -0.115739 0.126957 0.184372 
216 1 0.0839796 0.0728417 0.0211993 0.113172 
40 1 -0.0392768 -0.116002 0.154897 0.197464 
1130 1 -0.0380196 -0.179003 0.187264 0.261831 
3916 2 -0.0670021 0.0111783 0.19018 0.201947 
3041 1 0.018627 -0.0145753 0.0700398 0.0739255 
604 1 0.0597892 -0.0419853 0.138219 0.15634 
721 1 0.0177236 0.00276965 0.15117 0.152231 
3164 1 0.0708988 0.090339 0.168216 0.203677 
187 1 -0.0170416 -0.179707 0.00943919 0.180759 
3010 1 0.00952729 -0.00628919 0.177632 0.177998 
64 1 -0.0174733 0.00382673 -0.156749 0.157766 
193 1 0.0444762 0.0401675 -0.0704026 0.0924558 
44 1 0.0519077 0.0577129 -0.0203536 0.0802462 
2996 1 -0.0032598 0.0435885 -0.244929 0.248798 
4212 2 -0.0355104 0.273702 -0.125952 0.303377 
3279 1 0.0264082 0.142823 -0.0654869 0.159325 
257 1 -0.0119256 0.140059 -0.0691452 0.156652 
178 1 0.04475 0.000422443 -0.210506 0.21521 
330 1 0.0149149 0.20593 0.100585 0.229667 
103 1 -0.0588789 0.128178 0.00704972 0.14123 
3841 2 -0.0169939 -0.248881 0.050068 0.254436 
600 1 -0.0692146 0.0707808 0.0187937 0.100766 
338 1 -0.0440966 0.171462 -0.000782985 0.177043 
4101 2 0.000577093 0.0256844 0.0562141 0.0618065 
949 1 0.0562489 0.138614 0.0375567 0.154235 
3608 2 0.00482597 0.166638 0.0757782 0.183122 
2995 1 -0.0919768 -0.059807 -0.0749426 0.132865 
4217 2 -0.0796974 0.142574 0.148176 0.220534 
479 1 0.0337027 0.211078 0.0628642 0.222805 
3335 1 0.0384474 0.145336 -0.0278536 0.152894 
1457 1 -0.0504047 0.0270346 0.0604898 0.0832497 
3037 1 -0.117438 0.149471 -0.134866 0.233071 
4253 2 -0.0188275 -0.0205231 0.0469946 0.0546274 
387 1 -0.0461577 0.0579882 -0.0381524 0.0833593 
3736 2 -0.0920666 0.0978778 0.0625964 0.148238 
3394 1 -0.0355603 -0.0726683 -0.0252425 0.084749 
508 1 -0.0416338 0.0381707 0.0148179 0.0583947 
3537 2 0.00390389 -0.0959585 -0.0430304 0.105237 
747 1 -0.027277 0.0990648 -0.00168458 0.102765 
497 1 0.0278175 0.0578409 0.0164322 0.0662525 
958 1 -0.125705 -0.222814 0.153663 0.298429 
3130 1 -0.0473091 -0.0885064 0.0130224 0.101198 
4163 2 -0.0811973 -0.0561199 0.0908119 0.134124 
3643 2 -0.0615947 0.136637 0.0619234 0.162167 
133 1 0.0507077 0.0157121 0.184576 0.192058 
4204 2 -0.0869159 0.0322772 0.0208823 0.0950382 
86 1 0.293576 0.0750719 -0.030966 0.304601 
759 1 0.0223858 -0.0262951 0.152912 0.156763 
3411 1 -0.0877064 -0.035377 0.111681 0.146344 
835 1 0.0881623 -0.259346 0.308225 0.412354 
3057 1 -0.0560833 -0.010059 0.0343131 0.0665125 
3620 2 0.0329897 -0.0108503 0.0465271 0.0580588 
241 1 0.125151 0.157624 -0.100589 0.225003 
704 1 0.218825 -0.0329309 -0.0601218 0.229311 
3599 2 -0.0167585 0.222683 0.00519993 0.223373 
157 1 0.0649562 0.182797 -0.0634461 0.204107 
54 1 0.243112 -0.0806023 0.110243 0.278843 
493 1 0.153944 0.174434 -0.019397 0.233458 
204 1 0.0360619 0.102794 -0.104366 0.150862 
254 1 -0.0663319 0.230934 -0.048461 0.24511 
67 1 0.104964 0.0409514 -0.0672232 0.1312 
2988 1 -0.174375 0.195071 -0.100904 0.28043 
3030 1 -0.215074 0.168234 -0.301068 0.40645 
4050 2 0.00352306 0.16903 -0.0887257 0.190934 
3479 2 0.102857 0.115587 0.0559775 0.16454 
674 1 0.0200732 -0.00166503 -0.148017 0.149381 
2004 1 -0.138643 -0.0664974 -0.0805441 0.173583 
2934 1 0.0682232 0.0492199 -0.175755 0.194851 
3216 1 -0.0220601 -0.00314146 -0.131052 0.132933 
234 1 -0.0520318 0.0411252 -0.0455066 0.0804329 
1036 1 -0.0106204 0.0846997 -0.14117 0.164972 
3369 1 -0.0265174 0.114764 0.0166424 0.118958 
3607 2 0.0795609 0.188655 -0.130599 0.242851 
3139 1 -0.0233831 0.0802122 -0.0644987 0.10555 
644 1 -0.344472 -0.00797221 -0.0676126 0.351135 
1278 1 -0.0868575 -0.0594944 -0.0721139 0.12761 
4269 2 -0.11391 0.136329 0.112227 0.210133 
3007 1 -0.0832338 -0.0553474 0.182661 0.208222 
215 1 -0.0800868 0.0552467 -0.0317877 0.102355 
4089 2 0.0500969 0.174298 -0.0269299 0.183343 
214 1 0.00919473 0.10314 0.0565484 0.117984 
640 1 -0.0591354 0.14474 0.141758 0.21105 
199 1 0.0417991 -0.0938928 0.0764636 0.1281 
245 1 -0.074246 -0.0152834 0.144907 0.163536 
2758 1 -0.0549754 0.028727 0.0311054 0.0693908 
3056 1 0.0127872 0.00643976 0.00256073 0.0145444 
3468 2 -0.0252847 -0.0789391 0.0135538 0.0839905 
563 1 -0.0693355 -0.087434 -0.00964648 0.112005 
2977 1 0.112098 -0.00498807 -0.0352614 0.117619 
1149 1 0.0140321 -0.109822 0.0690771 0.130497 
2684 1 -0.137396 -0.0279734 -0.0506916 0.149097 
249 1 -0.0401755 0.0578528 0.0713654 0.10027 
3096 1 -0.0819983 -0.101305 0.115201 0.173948 
240 1 -0.0123058 -0.100814 0.192164 0.217352 
181 1 -0.0350855 -0.0817317 0.140056 0.165912 
46 1 0.00286712 -0.0949795 0.0210254 0.0973211 
3211 1 0.0239611 -0.117559 -0.0359013 0.125233 
1991 1 -0.00125628 0.125091 -0.109824 0.166465 
95 1 -0.0816473 -0.152991 0.0307081 0.176112 
2939 1 -0.0705906 -0.0191618 0.0415938 0.0841442 
3512 2 -0.068376 0.131105 -0.0515052 0.156577 
3603 2 -0.0159523 -0.127477 0.0541875 0.139431 
3701 2 0.00658476 0.0754289 0.00502845 0.0758826 
3513 2 -0.104367 0.0529991 -0.105853 0.157817 
312 1 0.00588616 -0.176064 0.137269 0.223329 
587 1 -0.0345266 0.159316 -0.0684663 0.176809 
134 1 0.0591837 0.0634521 -0.0724981 0.11307 
135 1 -0.0853379 -0.081312 -0.183063 0.21773 
3003 1 -0.0928456 0.134879 -0.0122197 0.164201 
191 1 -0.00646992 -0.0391149 -0.107667 0.114734 
685 1 -0.089179 -0.155312 -0.0697103 0.192183 
602 1 0.038386 -0.0820545 0.205638 0.224707 
195 1 -0.0184267 0.15938 0.0417372 0.165782 
3092 1 -0.0429798 0.023345 0.0355267 0.0604516 
4195 2 -0.0622437 -0.114812 -0.14633 0.196134 
80 1 -0.114063 -0.00387324 -0.0611857 0.129495 
540 1 -0.101203 -0.168001 0.282902 0.344238 
920 1 0.00520125 0.0154111 -0.168146 0.16893 
427 1 -0.179587 -0.0920754 -0.153907 0.253805 
4173 2 0.106836 -0.00726324 -0.125435 0.164926 
2950 1 -0.216525 -0.134867 -0.0247002 0.256285 
6 1 0.0573182 -0.29898 -0.166885 0.347167 
182 1 0.1527 -0.0298152 -0.123991 0.198947 
690 1 -0.0764304 -0.0515858 -0.135048 0.163526 
3408 1 -0.196702 0.0427612 0.144321 0.247687 
902 1 -0.0408062 0.17662 -0.0256359 0.183076 
154 1 -0.104001 0.0111418 -0.0318446 0.109337 
710 1 -0.223852 -0.115591 -0.231386 0.342068 
3115 1 -0.10133 -0.0517516 0.051192 0.124766 
742 1 -0.154516 -0.0950132 -0.254224 0.312302 
2926 1 -0.234681 -0.126857 0.162202 0.312214 
446 1 0.0137516 -0.0255369 0.23025 0.23207 
580 1 -0.0366486 0.00549132 0.159296 0.16355 
3518 2 -0.160741 0.216122 -0.0544045 0.274784 
354 1 0.126302 0.124626 -0.00603185 0.177539 
1179 1 -0.0189429 0.094354 0.0278705 0.100191 
3493 2 0.0975736 0.142069 0.151622 0.229551 
1331 1 -0.115467 0.0944247 -0.00117292 0.149165 
551 1 -0.149293 -0.0412531 -0.218888 0.268146 
4094 2 0.223356 0.0556359 0.232189 0.326948 
559 1 0.0636821 -0.0285355 -0.0890683 0.11315 
78 1 0.016526 0.121349 0.0111073 0.122971 
140 1 0.0903372 0.0255201 0.0916648 0.131204 
667 1 -0.231598 -0.0146803 0.000437909 0.232063 
205 1 -0.0365013 0.225034 0.217619 0.315167 
694 1 -0.0556711 0.0418124 0.0922082 0.115542 
861 1 0.157711 0.0636484 -0.0852512 0.190241 
3549 2 -0.0971709 0.10595 0.0339341 0.147713 
4014 2 0.0256431 -0.104283 0.0715406 0.129037 
3401 1 -0.0143066 0.0147389 0.0273703 0.0342206 
3678 2 0.0240926 0.104617 0.191593 0.21962 
614 1 0.0503317 -0.0675355 -0.0497303 0.0978132 
3341 1 -0.180715 0.149682 0.0629886 0.242961 
512 1 -0.106446 0.0703369 0.104831 0.165129 
300 1 0.0230623 0.105349 0.161756 0.19441 
393 1 -0.097751 0.04528 -0.063362 0.124981 
2740 1 0.0289422 0.0374891 0.149814 0.157122 
3197 1 -0.0356216 0.0802996 0.00850169 0.0882564 
4006 2 0.110812 0.286472 0.107292 0.325356 
286 1 -0.083585 0.101649 0.0644369 0.14653 
886 1 0.0237767 0.0572295 -0.0376099 0.0724917 
277 1 -0.0645072 -0.101736 0.0290997 0.123928 
364 1 -0.0364115 0.0309576 -0.0394548 0.0619746 
1367 1 0.0537204 -0.0486445 0.0234752 0.076179 
411 1 0.0411168 0.131328 -0.0342399 0.141809 
3631 2 0.0774351 -0.0122996 0.0236283 0.0818888 
356 1 0.011249 0.0425993 -0.0426873 0.061347 
3664 2 0.0081116 0.0765164 0.112866 0.136599 
357 1 -0.154487 0.0284572 -0.213754 0.265267 
265 1 -0.0557345 0.0729421 -0.095466 0.132441 
3389 1 0.0476831 -0.151183 -0.105578 0.190465 
362 1 0.0511643 0.0452366 -0.229562 0.239505 
478 1 -0.0206104 0.273091 -0.270026 0.3846 
4159 2 -0.104072 -0.0433816 -0.190628 0.221477 
2696 1 -0.0940469 0.00210142 -0.107914 0.143159 
966 1 0.0511682 0.213343 -0.153817 0.267943 
3612 2 0.037895 0.0649089 -0.0826225 0.111695 
3392 1 -0.201474 0.0556952 0.0888758 0.22714 
780 1 -0.0215844 -0.0580912 -0.144679 0.157392 
924 1 0.140793 -0.0201142 0.0116863 0.142702 
2710 1 0.113417 -0.0650176 -0.101542 0.165534 
3313 1 0.062533 -0.109699 -0.0184784 0.127615 
3482 2 -0.107907 -0.118416 0.00178818 0.160217 
771 1 -0.0366731 0.0213466 -0.0698852 0.081759 
3333 1 0.0585394 -0.147342 -0.00132025 0.158551 
3303 1 0.0824754 -0.0888824 0.0973566 0.155501 
3526 2 -0.0751942 0.131363 0.0696023 0.166598 
3249 1 -0.0992727 -0.0193207 0.0887732 0.13457 
92 1 -0.118827 -0.147407 0.205216 0.279217 
3379 1 -0.0172242 0.0112843 -0.0111195 0.023402 
1449 1 -0.0231299 0.0724895 -0.044953 0.088377 
903 1 0.0699341 0.129776 0.029039 0.150252 
1077 1 0.000494326 0.136996 0.107363 0.174055 
462 1 -0.0832612 -0.101102 0.10842 0.170026 
2966 1 0.13888 0.134026 -0.160402 0.250957 
3022 1 0.00507744 -0.026533 -0.0506882 0.0574376 
750 1 0.0887512 0.0202151 -0.0689156 0.11417 
3162 1 0.0678723 0.00453473 0.0370977 0.0774819 
449 1 -0.0609415 0.0447182 -0.082708 0.112046 
3658 2 -0.104837 0.222351 0.189554 0.310422 
287 1 -0.200203 -0.0449352 -0.00851041 0.20536 
3647 2 -0.324218 0.257514 -0.0784943 0.421417 
2890 1 -0.226441 0.181478 -0.104658 0.308485 
1285 1 -0.211144 0.352417 -0.0330369 0.412154 
943 1 -0.202622 0.0061107 -0.0634152 0.212402 
3305 1 0.139391 0.0548475 0.00212422 0.149809 
3209 1 -0.072997 -0.0914476 -0.0935611 0.149816 
3409 1 -0.122988 -0.172759 0.123005 0.245157 
3257 1 0.0748034 -0.0115047 -0.0501634 0.090798 
4318 2 -0.375482 0.148682 0.13864 0.426983 
3883 2 0.116147 0.11167 0.00698439 0.161273 
3531 2 0.116598 -0.0454101 -0.0189833 0.12656 
3227 1 0.0943523 -0.0178231 0.146941 0.175532 
373 1 0.246792 -0.0391256 0.0844907 0.263772 
4297 2 0.0124313 -0.0867578 0.207494 0.225245 
3404 1 0.192675 -0.0821842 -0.0825074 0.225134 
398 1 -0.000952024 0.00896023 -0.0511559 0.0519434 
2732 1 -0.0147871 -0.0468092 -0.026178 0.0556332 
3221 1 0.138051 0.000668348 -0.17789 0.225174 
836 1 0.0369278 -0.146943 -0.0359465 0.155717 
309 1 0.0321437 0.0564408 -0.0568923 0.0863453 
394 1 0.0500714 -0.0185986 -0.0560393 0.0774174 
412 1 -0.0108408 0.0119814 -0.140524 0.141449 
1212 1 -0.0778017 -0.00838446 -0.0462642 0.0909053 
3573 2 -0.0634522 0.0118296 -0.104812 0.123092 
3360 1 -0.0711805 -0.00287731 -0.135494 0.153081 
3319 1 -0.0227051 0.0271085 -0.0540041 0.064551 
3588 2 0.0229867 0.0149339 0.0124851 0.0301213 
2365 1 0.0391927 0.104452 -0.118864 0.163018 
306 1 -0.0618653 -0.00429743 -0.0748268 0.0971845 
3093 1 -0.103721 0.0701432 -0.114261 0.16951 
2745 1 -0.0917007 0.154677 -0.0205085 0.180982 
355 1 -0.0923066 -0.0533448 0.0389707 0.113512 
3097 1 0.127738 0.0533728 -0.0538787 0.148555 
468 1 0.175468 0.241878 0.120127 0.322063 
228 1 -0.00864439 0.0193764 0.0416492 0.0467421 
3324 1 0.113605 0.0910205 0.0340017 0.149489 
951 1 -0.0765753 0.293441 0.123947 0.327619 
2737 1 -0.112731 0.0610507 0.0164235 0.129248 
2959 1 -0.13728 0.278417 -0.0461279 0.313831 
4284 2 0.0519307 0.0459664 0.265056 0.273979 
4225 2 0.289423 0.11055 0.0243682 0.310775 
3192 1 0.123919 -0.108604 0.100308 0.192905 
4116 2 -0.0454734 0.105753 -0.0271028 0.118263 
716 1 0.182182 0.125977 0.0361551 0.224427 
353 1 0.0655761 -0.0635765 0.0708087 0.115568 
601 1 0.164392 0.0837547 -0.0925778 0.206422 
3094 1 -0.0250553 -0.0803339 -0.0010677 0.0841572 
3617 2 0.0990183 -0.0797806 0.00357344 0.12721 
206 1 -0.0928185 0.055314 -0.167684 0.199481 
71 1 0.115365 -0.0284797 -0.0618487 0.13396 
3676 2 -0.0100481 0.105545 -0.0528503 0.118464 
4123 2 -0.0967532 0.0386812 -0.0527795 0.116804 
4185 2 0.0377941 -0.221965 -0.0171837 0.225815 
3483 2 -0.0343267 0.203408 -0.0381604 0.209784 
763 1 -0.0195614 0.173868 0.0638043 0.186235 
3561 2 -0.0756668 -0.116643 -0.0921713 0.166813 
3290 1 -0.00991065 0.0546483 0.0544335 0.0777667 
388 1 -0.0468765 0.132362 0.120543 0.185061 
1313 1 -0.0415201 0.00600715 -0.225008 0.228885 
444 1 0.0244356 0.0420635 -0.0593445 0.0767347 
3668 2 0.028858 0.0611832 -0.0401681 0.0786743 
838 1 0.0387253 -0.0424963 0.0142501 0.0592338 
460 1 0.0364457 -0.127226 -0.157579 0.205781 
499 1 -0.0116306 -0.0176778 -0.0398834 0.0451493 
3548 2 -0.678375 -0.37314 -0.0740185 0.777757 
291 1 0.0914563 0.0556247 -0.0197176 0.108845 
482 1 0.00127775 0.0561313 0.0736936 0.092645 
1314 1 -0.0017488 0.0314329 0.0520333 0.0608157 
3672 2 0.0454784 0.0789377 -0.0317187 0.0964651 
375 1 0.0712126 -0.160818 -0.0846185 0.195177 
94 1 0.114515 -0.263757 -0.0656737 0.294948 
3281 1 0.000624063 -0.00744875 0.0595092 0.0599768 
37 1 -0.00850938 -0.047218 0.0656311 0.0812981 
3321 1 0.0718882 0.0279603 -0.128225 0.149637 
2961 1 0.0614804 0.118176 0.0498327 0.142228 
3380 1 0.0188675 -0.142887 0.138558 0.199927 
901 1 -0.138575 -0.152518 -0.191704 0.281452 
4309 2 0.00759952 -0.0800416 -0.0081535 0.0808139 
392 1 -0.0673651 -0.0174662 -0.0489651 0.0850923 
436 1 0.0744374 -0.053525 -0.0292684 0.0962418 
792 1 -0.104179 -0.114643 -0.0401488 0.160025 
3293 1 -0.00440879 -0.0113002 -0.127469 0.128045 
3320 1 -0.0909063 -0.184318 -0.0579431 0.213528 
3095 1 -0.110087 0.030133 0.012934 0.114867 
318 1 -0.122754 -0.0859607 -0.036482 0.154236 
3350 1 -0.109776 -0.0792557 0.069707 0.152287 
3314 1 0.0189589 -0.093913 -0.325855 0.339648 
2861 1 -0.118698 -0.0446029 -0.0178609 0.128053 
3180 1 -0.116879 0.173758 -0.0251081 0.210909 
3150 1 -0.104995 -0.199948 0.0392395 0.229222 
2479 1 0.0400953 0.0743531 0.014141 0.0856503 
160 1 0.0675099 0.0162234 0.097152 0.119412 
3535 2 0.0201242 0.116276 -0.0767537 0.14077 
221 1 -0.107486 0.210156 0.104725 0.258236 
4264 2 0.133914 -0.177482 -0.00882763 0.22251 
100 1 0.131404 -0.00482747 0.122544 0.179742 
1304 1 0.255685 -0.0861434 -0.0847968 0.282818 
433 1 -0.107561 0.0459818 -0.0537047 0.128716 
1354 1 0.0180866 -0.0734699 0.0188777 0.0779829 
3234 1 -0.0609035 0.0361248 0.0362729 0.079561 
553 1 -0.160283 -0.0667983 -0.00361806 0.173683 
483 1 -0.00213868 -0.0257824 0.172486 0.174416 
4271 2 0.126266 -0.0286191 0.0209434 0.131152 
1172 1 0.0574319 0.0132596 -0.105355 0.120723 
652 1 0.112606 -0.0688502 -0.105225 0.168798 
3568 2 0.0358206 -0.067998 -0.0487812 0.09103 
3433 1 -0.0624426 0.0700309 -0.0929205 0.132052 
3419 1 -0.0227147 -0.101795 0.0576976 0.119194 
248 1 0.0726048 -0.107675 0.0847777 0.155089 
3560 2 0.134211 -0.085447 -0.164311 0.228718 
419 1 0.272078 -0.201171 0.43119 0.548107 
3082 1 0.094703 -0.0230728 0.0648673 0.117085 
917 1 -0.0263168 -0.192702 -0.0545143 0.201986 
2969 1 0.0862785 0.0391978 0.21648 0.236314 
325 1 -0.0997448 -0.0686309 0.0569676 0.133808 
292 1 0.0101764 -0.098712 0.0354137 0.105365 
3444 1 0.0491677 -0.0117436 0.0178869 0.053622 
908 1 0.0430703 -0.150089 -0.0122341 0.156625 
3504 2 0.213136 -0.173022 -0.0663062 0.282418 
423 1 0.187484 -0.186718 -0.0878972 0.278819 
502 1 -0.0324703 -0.163784 0.172418 0.240016 
3435 1 0.0212996 -0.103053 0.121513 0.160745 
430 1 -0.118229 -0.0900714 -0.0143909 0.149325 
439 1 0.111326 -0.0696682 0.0522265 0.141332 
3331 1 0.097585 -0.0505241 -0.0399718 0.116933 
4182 2 0.141596 0.0117647 0.0714216 0.159025 
874 1 0.0667632 -0.170853 0.0456043 0.189018 
980 1 0.0721214 -0.0204458 0.0366254 0.0834323 
810 1 0.116585 -0.11275 0.100726 0.19092 
3312 1 0.108552 -0.193903 0.0113419 0.222509 
4098 2 -0.0671061 0.013046 0.0973028 0.118917 
225 1 0.0253676 -0.0845226 0.0284158 0.0927095 
4280 2 0.105942 -0.176378 0.0950742 0.226654 
416 1 0.0181979 0.0123969 0.230243 0.231294 
365 1 0.0676876 -0.144085 0.00805584 0.159396 
3799 2 0.0463801 -0.129823 -0.230057 0.2682 
2819 1 -0.0507061 -0.164374 0.0819358 0.190534 
382 1 0.175182 0.082871 -0.1497 0.24488 
404 1 -0.0596416 -0.0801368 -0.0772703 0.126292 
2776 1 0.101453 -0.0400144 0.00202353 0.109077 
2973 1 -0.0616381 -0.13047 0.0309842 0.147586 
957 1 0.160796 -0.163765 -0.0579274 0.236706 
795 1 0.140523 -0.0888171 0.0909169 0.189475 
490 1 0.0823711 -0.0831418 0.0266481 0.120032 
3266 1 0.15549 -0.00591075 0.135886 0.206584 
4285 2 0.0393974 0.0563409 0.0851959 0.109475 
496 1 -0.0692035 0.053049 0.172021 0.192859 
2993 1 -0.00974034 0.0612196 0.0206972 0.0653536 
4256 2 -0.0560111 -0.0188967 0.0639628 0.0870952 
471 1 -0.157613 0.115181 0.0468782 0.200764 
517 1 0.0560808 0.0718052 0.0728444 0.116651 
279 1 -0.0750414 0.376311 0.134867 0.406731 
107 1 -0.0679771 -0.0768932 -0.0649298 0.121447 
4154 2 -0.0572981 0.088857 -0.0687894 0.126137 
4028 2 -0.0810048 0.0184702 0.0496332 0.09678 
208 1 -0.0217573 0.0145854 0.0235014 0.0351914 
3322 1 0.0996066 0.162984 0.0228949 0.192379 
3863 2 -0.10255 -0.0763561 0.0616526 0.141943 
274 1 -0.109195 -0.1026 -0.0592265 0.161116 
1091 1 0.0890448 -0.143716 0.205609 0.266192 
3396 1 0.0485422 -0.0320598 0.0710167 0.0918016 
819 1 -0.051863 -0.0577828 -0.0524031 0.0936734 
329 1 -0.195104 0.0758958 -0.0751164 0.222415 
2545 1 -0.034446 0.141811 0.144288 0.205222 
3327 1 -0.133182 0.0870582 -0.0516567 0.167287 
3674 2 -0.0496577 0.128085 0.213733 0.254074 
1418 1 0.0177639 -0.221796 -0.116677 0.251242 
443 1 0.113036 -0.0047327 0.100776 0.15151 
855 1 0.0139542 -0.0657642 -0.0916578 0.11367 
4298 2 -0.15265 -0.189171 0.100832 0.263163 
3476 2 0.0478189 -0.0778189 0.0515949 0.104902 
2869 1 0.0125749 -0.0628237 0.15864 0.171089 
4307 2 -0.0566841 -0.100395 -0.0405835 0.122226 
177 1 0.0370852 -0.0239651 0.0446091 0.0627663 
363 1 -0.121185 -0.131938 -0.111738 0.211137 
1450 1 -0.0940574 0.0400517 0.0824843 0.131357 
3559 2 0.0110306 -0.0800303 -0.0237751 0.0842127 
347 1 0.0487807 -0.0855727 -0.011765 0.0992001 
4237 2 0.0247992 -0.0983655 -0.0660061 0.121027 
319 1 -0.137895 0.00706658 0.114176 0.179168 
830 1 -0.0911751 -0.0518114 -0.0306476 0.109255 
295 1 0.016377 -0.0749451 -0.173245 0.189469 
937 1 -0.0124797 0.0118039 -0.0187508 0.0254297 
268 1 0.100369 -0.0447785 0.0449197 0.11873 
854 1 0.115468 -0.0484994 -0.00527883 0.125351 
442 1 -0.118958 -0.0307502 -0.0559445 0.135005 
875 1 0.073358 -0.0530252 0.0507383 0.103766 
501 1 0.12235 0.0117226 0.345483 0.366695 
3378 1 0.109354 0.207774 0.0890658 0.251119 
3291 1 0.232359 -0.0999747 0.037385 0.255702 
314 1 -0.00716815 -0.130581 0.0314691 0.134511 
474 1 -0.0812052 0.0406385 -0.337356 0.349364 
3070 1 0.0732871 -0.0585812 -0.0608345 0.11182 
964 1 -0.123389 0.158132 -0.139441 0.244283 
793 1 0.0228998 0.0408354 -0.0912958 0.1026 
3397 1 -0.100605 -0.113346 -0.0245733 0.153534 
899 1 0.0117263 -0.168771 -0.0707743 0.183385 
1337 1 -0.00920882 0.0476436 -0.0219975 0.0532786 
3278 1 -0.139205 0.0553969 -0.120775 0.192441 
3544 2 0.0043529 -0.0636977 -0.0180211 0.0663408 
1430 1 -0.127751 -0.0267066 0.11356 0.173001 
3200 1 -0.0224181 0.0623093 0.13194 0.147625 
757 1 -0.08167 0.0120363 0.0727255 0.110018 
822 1 -0.0842749 -0.0309598 0.185129 0.205751 
85 1 0.0800634 -0.106407 0.334257 0.359806 
699 1 0.0864873 0.0396725 -0.0232937 0.097962 
3383 1 0.156718 0.0637614 0.00863739 0.169412 
3240 1 -0.283676 -0.395887 0.0935835 0.49594 
113 1 0.0829241 0.088618 0.0361589 0.126637 
504 1 -0.0379455 0.1886 0.338192 0.38908 
2795 1 -0.036313 0.00881732 0.186492 0.190199 
781 1 0.0439816 -0.200751 0.0386262 0.209111 
581 1 0.00179217 -0.19633 0.18327 0.268583 
3541 2 0.0164671 0.0900589 -0.116384 0.148078 
786 1 0.0323324 -0.106031 -0.0974545 0.147599 
800 1 0.00379061 -0.0593798 0.0170339 0.0618909 
367 1 0.349237 -0.192286 0.248869 0.469975 
2687 1 0.0232117 -0.106157 0.0257054 0.111664 
3545 2 0.0511004 -0.0368701 -0.0716174 0.0953924 
491 1 -0.0638196 -0.0465258 0.0662954 0.103115 
840 1 -0.10726 -0.00338174 -0.137978 0.174797 
3434 1 0.0471083 -0.141666 -0.0792828 0.169039 
2814 1 0.0749375 -0.059036 -0.0737303 0.12057 
1723 1 0.0198284 -0.0391547 -0.0723493 0.0846208 
3264 1 0.105169 -0.120583 0.120381 0.200231 
440 1 0.0511279 -0.0682357 0.0145922 0.086505 
431 1 0.0477383 -0.0859329 -0.0306502 0.10297 
402 1 0.0135918 -0.170508 0.275831 0.324562 
968 1 -0.0371885 -0.0268806 0.0946801 0.105213 
801 1 -0.0882807 -0.23719 0.00919025 0.253253 
2656 1 0.14722 0.0612993 -0.086701 0.181517 
421 1 -0.0588819 -0.0848409 -0.29267 0.310356 
4152 2 0.234878 0.123278 -0.0869984 0.279167 
461 1 -0.25583 0.333836 -0.0342657 0.421983 
647 1 0.0117455 0.0948403 0.22557 0.244979 
3436 1 -0.114076 0.0167035 0.11754 0.164645 
3371 1 -0.00715826 0.0653006 -0.164643 0.177265 
486 1 0.031269 0.456174 0.255221 0.523651 
308 1 0.102508 -0.0536913 -0.073102 0.136874 
307 1 0.0442877 -0.0488197 -0.002588 0.0659656 
3339 1 -0.196053 0.128982 0.0637652 0.243186 
4143 2 -0.189789 -0.11768 0.293657 0.368921 
2873 1 -0.221553 -0.00251324 0.170762 0.279735 
2884 1 -0.0813528 -0.086614 0.134255 0.17929 
128 1 -0.0209709 0.169919 0.0435307 0.176656 
907 1 -0.0296862 0.00774279 0.00611601 0.031283 
1641 1 -0.114638 0.124602 -0.180721 0.247644 
885 1 0.0596967 -0.0714978 -0.256692 0.273068 
1300 1 0.0563208 0.0382187 -0.0497038 0.0842803 
1934 1 -0.0248411 0.0300254 0.0669942 0.0775037 
891 1 -0.139313 0.0536981 -0.0837959 0.171211 
3778 2 -0.0367732 0.0862683 0.048609 0.105628 
1269 1 -0.0648596 -0.0961924 0.0597772 0.130511 
1535 1 0.00924819 0.0869243 -0.0495728 0.100493 
573 1 -0.0482894 0.0475428 0.103948 0.124086 
3844 2 -0.00952847 0.0217446 -0.138479 0.1405 
631 1 0.204431 -0.00548083 0.0135416 0.204953 
606 1 -0.0242681 0.106847 0.338624 0.355909 
3600 2 0.268949 0.0620722 -0.142279 0.310531 
627 1 -0.0986704 0.0803329 -0.0812289 0.150955 
1474 1 -0.0449975 0.128066 0.107712 0.173284 
1569 1 -0.0425042 -0.214085 0.012302 0.21861 
63 1 -0.148588 -0.0790498 0.107354 0.19963 
577 1 -0.0283157 0.0660396 0.131322 0.149695 
565 1 0.0349505 -0.00308613 0.082842 0.0899659 
3616 2 -0.0638259 -0.00834315 0.176846 0.188197 
3418 1 0.00392688 -0.0976812 0.0350798 0.103864 
4176 2 -0.0617347 -0.00238859 0.0282574 0.0679364 
2057 1 0.00863139 -0.0432897 0.0685071 0.0814967 