ITEM: TIMESTEP
70
ITEM: NUMBER OF ATOMS
4320
ITEM: BOX BOUNDS pp pp pp
0.0000000000000000e+00 1.9309999999999999e+01
0.0000000000000000e+00 1.9309999999999999e+01
0.0000000000000000e+00 9.6549999999999994e+00
ITEM: ATOMS id type c_displacement[1] c_displacement[2] c_displacement[3] c_displacement[4] 
3196 1 0.0412397 -0.0285068 0.0792508 0.0937765 
381 1 0.0955161 0.0847353 -0.0524207 0.138027 
327 1 -0.0688362 -0.0145514 -0.0624829 0.0940972 
484 1 -0.0273308 0.0416128 0.0203041 0.0537667 
728 1 -0.026368 0.162405 -0.151455 0.223628 
817 1 0.148885 0.0111142 0.059304 0.160646 
3586 2 0.0602463 -0.0435187 0.106876 0.130177 
3460 2 0.045588 0.0814115 -0.0566917 0.109179 
3679 2 0.0257972 -0.00798493 0.149274 0.151697 
2945 1 -0.116396 -0.000905969 -0.131389 0.175533 
3230 1 0.0566326 0.0656825 -0.0676735 0.110005 
3651 2 0.0985865 0.00683031 0.0119785 0.0995461 
66 1 0.0479726 0.0431561 -0.0257239 0.0694661 
400 1 -0.0764092 0.0905361 -0.104312 0.157849 
677 1 0.0624623 0.0325256 0.0678114 0.0977642 
623 1 0.061692 0.0324428 0.0657771 0.0958388 
87 1 0.0921756 -0.0476699 0.000966264 0.103777 
3006 1 0.0329643 -0.111038 0.100626 0.153433 
3877 2 0.0708356 0.0490154 -0.140779 0.165042 
727 1 0.0881672 -0.00750975 -0.0118112 0.0892712 
688 1 0.03624 0.0357316 -0.0302004 0.059179 
58 1 0.0779618 -0.0379318 -0.00661931 0.0869522 
3514 2 -0.0399912 0.0116299 -0.113775 0.121159 
18 1 0.0737522 0.0296885 -0.0211057 0.0822572 
3618 2 0.0269461 0.0453248 0.126138 0.136716 
190 1 0.0265873 0.118036 -0.108448 0.162482 
298 1 0.00716018 -0.0724814 -0.115966 0.136942 
559 1 0.0429335 0.0129791 -0.021894 0.0499108 
626 1 0.116865 0.11239 0.0452586 0.168337 
180 1 0.0234408 0.044264 0.0612691 0.079137 
106 1 -0.0443572 -0.0193071 -0.0638821 0.0801327 
217 1 -0.0180446 0.0592715 0.0930733 0.111809 
775 1 -0.0493137 0.0191522 -0.061208 0.0809015 
3627 2 0.0249243 0.0548801 -0.086285 0.105253 
608 1 0.160062 0.029994 0.065936 0.17569 
3118 1 -0.0367141 0.0186188 -0.0475336 0.062881 
562 1 -0.104933 0.0155376 -0.0486389 0.116697 
70 1 0.0214462 0.047474 0.0519383 0.0735616 
121 1 -0.027623 -0.0393743 -0.00509315 0.0483664 
1118 1 0.0225624 0.0105679 0.0624391 0.0672264 
210 1 -0.00489043 -0.0496758 0.122268 0.132065 
232 1 -0.0132766 -0.0205827 -0.06114 0.0658636 
4214 2 0.0552191 0.046785 0.117382 0.1379 
3712 2 -0.0308527 0.00262664 -0.0773556 0.0833228 
65 1 -0.0453422 -0.0669072 0.000989093 0.0808299 
226 1 0.0635375 -0.0356848 0.0525231 0.0898282 
532 1 0.00742625 -0.0126877 0.116284 0.11721 
3578 2 0.0219653 -0.0535322 -0.0347096 0.0674754 
473 1 0.0258317 -0.0258685 -0.0633674 0.0731565 
246 1 0.0364979 -0.021632 0.0816317 0.0919988 
221 1 -0.0469787 0.0272534 0.028527 0.0613476 
4034 2 0.062789 -0.0123218 0.0533065 0.0832819 
4071 2 0.0390748 0.0127273 0.147122 0.152753 
2838 1 0.0368379 0.0381665 0.0364353 0.0643525 
536 1 0.0864857 0.080754 0.106783 0.159385 
894 1 0.0683763 -0.0614246 0.0339149 0.097972 
289 1 0.0143649 -0.0405738 0.0652043 0.0781292 
351 1 0.046869 0.131592 0.0152946 0.140525 
197 1 -0.0136373 -0.129026 -0.0610608 0.143395 
3135 1 -0.127895 0.0429095 0.0692279 0.151628 
303 1 -0.0127423 -0.0162472 0.0192762 0.0282473 
1415 1 0.0910496 -0.141378 0.00102918 0.168163 
527 1 0.0069516 -0.114633 0.0694562 0.134213 
3002 1 -0.0408329 -0.0288908 0.0784733 0.0930595 
3189 1 0.0191659 -0.112453 -0.00171682 0.114087 
712 1 -0.0469457 -0.082692 -0.00806078 0.0954297 
718 1 0.007383 -0.0864697 0.0253569 0.0904129 
3469 2 0.0194787 -0.0748054 -0.0281293 0.0822589 
110 1 0.141274 -0.0372324 -0.0738552 0.163705 
4177 2 -0.00696389 -0.150651 0.0984306 0.180091 
93 1 -0.0230928 -0.0797269 0.118664 0.144813 
569 1 -0.0197579 0.0163213 -0.101432 0.10462 
639 1 0.0730819 -0.0550403 0.00901482 0.0919329 
21 1 -0.061088 -0.0618511 0.089972 0.125109 
96 1 0.0988231 0.0612393 -0.0958588 0.150682 
167 1 0.0570442 0.0234845 0.0911411 0.110056 
1178 1 0.0135373 0.047846 -0.0210278 0.0539877 
3353 1 -0.0488078 -0.00443512 -0.0543517 0.0731845 
823 1 -0.0159605 -0.0198292 0.0106199 0.027581 
2596 1 -0.0131872 -0.142394 0.0870708 0.167425 
50 1 0.00899217 -0.113236 0.031537 0.117889 
2495 1 0.203321 -0.029083 -0.00518431 0.205456 
28 1 -0.0982649 0.0651549 -0.0205724 0.119684 
3055 1 0.165349 0.0564702 0.0408359 0.179434 
12 1 0.145052 0.00865056 -0.0779925 0.164917 
3835 2 -0.0273097 -0.0525987 0.0720263 0.093275 
4170 2 0.02422 0.0346011 -0.112272 0.119954 
738 1 0.0610022 -0.0152528 -0.0833924 0.104442 
2453 1 -0.0353694 0.0775097 0.0804093 0.117151 
3167 1 0.0638949 -0.0392037 -0.015879 0.0766266 
339 1 0.156514 0.0145361 0.0030785 0.157218 
390 1 0.115275 -0.0138526 0.0521722 0.127288 
203 1 -0.00497155 -0.00270558 -0.0236192 0.0242879 
3582 2 0.0718339 0.105202 -0.105544 0.16543 
3632 2 0.0239023 -0.0350071 -0.0276533 0.0506115 
231 1 -0.0396216 0.0129089 0.10166 0.109869 
323 1 -0.0478494 -0.0688671 0.000317216 0.083859 
3244 1 0.025042 -0.0536831 -0.0512864 0.0783535 
118 1 0.153105 -0.0479081 0.018919 0.161537 
155 1 -0.120765 -0.0521662 -0.0967567 0.163301 
2735 1 -0.0159502 -0.068813 -0.174497 0.188252 
2768 1 -0.0352684 0.12883 0.0863797 0.159068 
2960 1 -0.0445908 0.0781494 -0.0761523 0.117876 
29 1 -0.0452403 0.0214304 0.0885165 0.101691 
753 1 -0.0759448 -0.0416665 -0.0135159 0.0876721 
3467 2 -0.0744838 0.0310975 0.0193443 0.0830006 
3916 2 -0.085739 0.0275634 0.0528855 0.10444 
3251 1 -0.0722392 -0.0208138 0.021767 0.0782657 
4289 2 0.02274 0.0565295 -0.0598341 0.085398 
725 1 -0.0755855 0.0230198 0.0120558 0.0799276 
1133 1 0.00180759 0.0262752 0.0155562 0.0305884 
546 1 -0.111967 0.04336 -0.037231 0.125709 
4187 2 -0.0612374 -0.0647596 0.0484823 0.101461 
437 1 -0.157428 0.0427342 -0.0858055 0.184316 
53 1 0.0907246 -0.0103317 -0.0935204 0.130705 
593 1 -0.0608009 -0.0154288 0.0214037 0.0662791 
609 1 -0.0664521 0.00867156 -0.101918 0.121977 
3040 1 0.0372297 0.100781 -0.0604609 0.123281 
737 1 0.114125 0.158069 0.045673 0.200241 
233 1 -0.0627368 0.105185 0.0711288 0.14163 
610 1 -0.0895468 -0.110369 0.0936859 0.170226 
247 1 0.0973871 0.0897707 0.0729993 0.151235 
89 1 -0.0305534 -0.0754511 0.0448435 0.0929372 
3149 1 -0.0822857 -0.0530715 0.124291 0.158227 
550 1 0.0313401 -0.0463736 -0.0730177 0.0920016 
147 1 0.0200134 -0.140686 0.145655 0.203491 
3554 2 -0.184306 -0.0131415 -0.000905472 0.184777 
3786 2 -0.0747735 0.0286108 0.0370487 0.0882171 
5 1 0.107693 0.0159761 -0.0584721 0.12358 
2591 1 0.0264438 0.101736 0.0484489 0.115744 
3232 1 -0.0519463 0.0580977 -0.0332793 0.0847424 
1215 1 0.0580986 0.00677516 -0.00297481 0.0585679 
859 1 0.0727084 -0.00707119 0.0907433 0.116494 
3152 1 0.0395208 -0.0912226 -0.0631902 0.117798 
2936 1 -0.0494118 -0.0133098 -0.0718324 0.0881962 
59 1 0.0745869 -0.121365 0.0153361 0.143275 
2461 1 -0.102655 -0.116991 -0.132157 0.204182 
988 1 -0.0192019 0.097352 -0.22666 0.247429 
23 1 0.0221756 -0.0226338 -0.0729548 0.079539 
3743 2 -0.0320972 0.0441819 0.0350022 0.0648647 
3023 1 -0.0633429 0.0997064 -0.0300433 0.121886 
151 1 0.071683 -0.0568286 0.142523 0.169354 
43 1 0.043111 0.0151186 -0.149758 0.156571 
3730 2 -0.029235 0.0060972 -0.132345 0.135673 
1454 1 -0.141158 -0.0294906 0.0255221 0.146447 
424 1 0.0906176 -0.00580682 0.00376086 0.0908813 
3478 2 0.109294 0.048422 -0.0118906 0.12013 
3611 2 0.0608659 -0.0512704 -0.0378516 0.0881253 
3346 1 0.0442288 0.0193758 -0.0587987 0.0760848 
3199 1 -0.0149895 -0.00125145 -0.082436 0.083797 
100 1 -0.0841775 -0.203898 0.00696744 0.2207 
2500 1 -0.0703501 -0.0815771 -0.0501238 0.118812 
3188 1 0.0301509 0.169953 -0.0184129 0.173586 
3491 2 0.0241567 0.153 0.0492636 0.16254 
717 1 -0.0985474 0.00991022 0.0824319 0.12886 
2931 1 -0.108202 -0.0344844 0.0456892 0.122411 
691 1 -0.010996 -0.0182178 0.0193527 0.0287633 
825 1 0.101885 -0.015034 0.0348348 0.10872 
3634 2 0.12197 0.161656 0.0741734 0.215664 
140 1 -0.00772209 0.0577698 0.00160901 0.0583058 
174 1 -0.00968201 -0.0807389 -0.0455374 0.0931996 
3493 2 0.105373 -0.0135039 0.153877 0.186987 
529 1 0.0903268 -0.038936 -0.0238264 0.101206 
1480 1 0.0839706 0.0410679 0.00382897 0.0935537 
2968 1 0.0610192 -0.106419 0.0114574 0.123205 
3464 2 0.0448418 0.0389299 -0.0247863 0.0643481 
98 1 -0.0324356 -0.0545064 0.0559482 0.0845767 
216 1 0.107025 -0.0569341 -0.0168359 0.12239 
40 1 0.0672447 -0.133169 -0.0500052 0.157342 
4228 2 -0.084473 -0.0137029 -0.0587306 0.103792 
1130 1 -0.00375313 0.0101288 -0.00443467 0.0116767 
2994 1 0.00758442 -0.0595434 0.0405709 0.0724496 
3041 1 -0.0872926 0.0635465 0.0219215 0.110176 
604 1 0.0653687 0.00944641 -0.0432139 0.0789288 
721 1 0.0742524 -0.0235568 0.0332587 0.0847023 
3164 1 0.0320293 -0.013557 -0.0316632 0.0470343 
241 1 -0.0234453 0.0365051 0.0330233 0.0545237 
2494 1 0.0535786 0.00339325 -0.0862145 0.101563 
3010 1 0.122255 -0.0414805 0.110211 0.169745 
64 1 0.0481609 -0.162929 -0.0987031 0.196488 
193 1 -0.0344651 -0.0214644 0.0610631 0.0733298 
44 1 0.00244296 -0.0933133 -0.0136546 0.0943387 
2996 1 0.127755 0.10777 0.133681 0.214024 
4212 2 -0.0126649 0.00821678 0.0570879 0.0590504 
3279 1 0.0180965 -0.00918275 0.0123846 0.0237736 
257 1 -0.00968864 -0.0113654 -0.0272926 0.0311115 
330 1 0.0634986 0.221741 0.0975817 0.250446 
2981 1 0.0190598 -0.11418 0.0177492 0.117113 
103 1 -0.0897828 0.0391998 -0.0468975 0.108614 
3841 2 0.0193423 -0.0263445 -0.0559144 0.0647656 
600 1 -0.0228326 -0.0552637 -0.0246266 0.0646674 
338 1 -0.066553 -0.144436 0.0258863 0.161124 
4101 2 0.0196032 -0.0112009 0.104807 0.107211 
949 1 -0.0735377 0.0294934 0.0214542 0.082085 
446 1 -0.0691962 -0.0363524 0.136273 0.157099 
3608 2 0.0660326 0.0277385 0.10541 0.12744 
4217 2 -0.0331747 0.0066858 0.00500182 0.0342093 
479 1 0.0106904 0.0239639 -0.0387932 0.0468344 
3335 1 0.00743171 -0.0884188 -0.0036701 0.0888064 
1457 1 -0.0912454 -0.0464501 -0.0586238 0.117983 
3037 1 -0.189841 0.113775 -0.173102 0.280978 
4253 2 0.0825549 0.0663475 -0.158407 0.190552 
387 1 0.0121977 -0.0626126 -0.0407391 0.0756889 
3736 2 -0.046931 -0.0895747 -0.155793 0.185735 
1991 1 0.0452153 0.0313791 -0.0575025 0.0795966 
3394 1 -0.00442169 0.0184474 -0.0360005 0.0406927 
508 1 -0.0864564 -0.0211277 -0.0763172 0.117241 
3537 2 0.0264867 -0.0155321 -0.184218 0.186759 
747 1 0.0188488 0.0372071 0.00146344 0.0417347 
497 1 0.0992098 -0.038007 0.0528747 0.118671 
958 1 -0.04112 -0.0484033 0.0213206 0.0669948 
3130 1 -0.0474385 0.0338823 -0.133221 0.145417 
4163 2 -0.0706522 0.219944 -0.0378732 0.234097 
3643 2 -0.0523753 -0.00486449 -0.0294576 0.0602876 
133 1 0.0655875 -0.023246 0.0336724 0.0773041 
4204 2 -0.0859089 -0.0950487 -0.0236635 0.130286 
86 1 0.0712457 0.0085926 -0.0775574 0.105664 
759 1 -0.0275128 0.0134717 0.0376308 0.0485234 
3411 1 0.0134482 0.0202503 0.0635459 0.0680369 
835 1 -0.0343886 0.0911817 0.0678943 0.11877 
3057 1 0.0247666 0.0355016 0.0408327 0.0595068 
3620 2 0.0245075 -0.0789504 0.0219674 0.0855357 
704 1 0.0444203 -0.0613362 -0.138027 0.157438 
3599 2 -0.0422843 0.114129 0.0517533 0.132256 
157 1 -0.0417689 0.0890763 0.0916055 0.134428 
54 1 0.0180216 -0.234192 -0.03604 0.237633 
493 1 0.0602119 0.139368 0.0285001 0.154471 
204 1 -0.194832 -0.0196704 0.0534742 0.202993 
254 1 0.0321636 0.022283 0.0573049 0.0693893 
178 1 0.114782 -0.0500704 -0.180285 0.21951 
580 1 -0.0544072 -0.0349403 0.176789 0.188242 
67 1 0.0688536 -0.115958 -0.0462443 0.142568 
2988 1 0.043781 0.0248709 -0.0749217 0.0902696 
3030 1 -0.0398327 0.0498538 0.119845 0.135775 
4050 2 0.0718058 0.129008 -0.0875488 0.171651 
3479 2 -0.03869 0.0310813 -0.115257 0.125488 
2934 1 0.0543616 0.0225053 -0.0563302 0.0814541 
3216 1 -0.129264 -0.0169673 -0.00613254 0.130517 
234 1 0.117457 -0.10161 -0.0751344 0.172528 
1036 1 0.0926533 -0.13474 -0.0123459 0.163988 
3369 1 -0.0884079 -0.0169475 0.0316798 0.0954295 
3607 2 -0.0489123 0.0380084 -0.0196104 0.064974 
3139 1 0.0733233 0.0550065 -0.0372978 0.0989603 
644 1 -0.148527 -0.0632071 -0.0991426 0.189432 
1278 1 0.070846 0.0331254 -0.0622421 0.0999526 
4269 2 0.0454188 0.0747684 0.0566425 0.104219 
3007 1 -0.0246613 -0.0499302 0.0522623 0.0763711 
4089 2 0.0464301 0.0886082 0.0105078 0.100586 
214 1 -0.0126426 -0.0494295 0.0378642 0.0635359 
640 1 0.0132325 -0.0137811 -0.0384353 0.0429219 
199 1 -0.047831 -0.0838809 -0.116137 0.151035 
245 1 0.0761353 0.0159097 0.137499 0.157974 
2758 1 -0.099671 -0.0612719 -0.0369445 0.122692 
3056 1 -0.0570264 -0.105464 0.0265421 0.122797 
3468 2 -0.0906773 0.019336 0.0523316 0.106465 
563 1 -0.0153082 0.152506 0.00310992 0.153304 
3518 2 -0.143671 0.0670201 0.0639209 0.170935 
1149 1 0.0324068 -0.0269128 -0.00667631 0.0426506 
2684 1 -0.230343 0.036762 0.0427274 0.237139 
249 1 -0.129991 0.0582082 0.0658018 0.156894 
3096 1 0.0568771 0.108955 -0.0453487 0.131006 
240 1 0.0063853 -0.0608305 0.093427 0.111668 
181 1 -0.131002 -0.0294379 0.175109 0.220661 
46 1 0.0714253 -0.0144165 -0.0455983 0.085957 
3211 1 0.0617586 0.0245133 -0.0150959 0.068139 
354 1 0.0776041 -0.0560931 0.0917436 0.132611 
2939 1 0.00566742 0.0536074 0.0394888 0.0668224 
3512 2 0.00735582 0.0659341 0.0173971 0.0685863 
3603 2 -0.155761 0.136121 -0.0863603 0.224162 
3701 2 -0.0314814 0.0418541 0.0820124 0.0973082 
3513 2 -0.00761543 -0.0165246 0.0375858 0.0417582 
312 1 -0.128365 -0.106098 0.0524838 0.17461 
587 1 -0.0146094 0.0444557 0.00899599 0.0476516 
134 1 -0.0364869 0.0578387 0.0847039 0.108864 
135 1 -0.109484 -0.095913 -0.14025 0.202129 
1179 1 0.160426 0.0408399 0.0700327 0.179747 
3003 1 -0.00167974 0.0487914 0.00760749 0.0494095 
191 1 -0.0705282 0.0187787 0.0986459 0.122711 
685 1 0.0056876 -0.0441741 -0.0664584 0.0800026 
602 1 -0.0812199 -0.0242658 0.0488315 0.0978265 
195 1 -0.109735 0.0472337 -0.0332017 0.123997 
3092 1 -0.0346506 0.000873283 -0.00468979 0.0349774 
4195 2 -0.142638 -0.00809409 -0.115706 0.183845 
2995 1 -0.194121 -0.0776534 -0.0473773 0.214378 
540 1 -0.150437 0.00823819 0.0753132 0.168437 
674 1 -0.0497223 0.0335004 -0.142124 0.154252 
920 1 -0.115104 0.101471 -0.0678115 0.167761 
902 1 0.0164451 0.101543 0.101976 0.144846 
2004 1 -0.14039 0.0166394 -0.0815081 0.163187 
427 1 -0.16471 -0.0144791 -0.0995007 0.192975 
4173 2 0.0663745 0.133024 -0.0646742 0.162122 
2950 1 -0.259734 -0.0116457 -0.00284502 0.260011 
6 1 -0.121242 0.0793982 -0.0515378 0.153818 
182 1 0.0468999 -0.0559638 -0.125141 0.144885 
690 1 -0.0241943 0.0745506 -0.0275055 0.0830644 
154 1 0.0520798 0.0207536 0.0400964 0.0689256 
710 1 0.0319898 -0.126272 -0.0695416 0.147662 
3115 1 -0.172084 0.104339 0.00689649 0.201364 
742 1 0.0298013 -0.0148755 -0.102726 0.107991 
2926 1 -0.163917 -0.0530948 0.114127 0.20667 
80 1 -0.103501 -0.0372129 -0.0163713 0.1112 
2977 1 -0.0276659 0.0164499 -0.180937 0.183777 
95 1 -0.090057 -0.00827131 0.0756015 0.117874 
3408 1 -0.105303 -0.0984437 0.128171 0.192893 
85 1 0.0975808 -0.157661 0.214084 0.283216 
4098 2 -0.00362197 0.130296 -0.0146939 0.131172 
215 1 0.0216333 0.0183159 0.0120588 0.030804 
78 1 -0.00949897 -0.0235405 0.000689819 0.0253941 
205 1 -0.0672733 0.00598214 0.089014 0.111736 
694 1 -0.0364711 0.0488084 0.0737601 0.0956711 
861 1 0.0618289 -0.00518481 -0.100884 0.118436 
3549 2 0.00320435 -0.184884 0.0584114 0.193918 
4014 2 0.000617802 -0.0759096 0.0150632 0.0773921 
3401 1 -0.0580145 0.0902894 -0.026431 0.110528 
1077 1 -0.039063 -0.081312 0.10933 0.141742 
3234 1 -0.0825113 -0.0702085 0.0529559 0.120589 
3393 1 -0.0383571 -0.0315143 -0.033752 0.0600301 
3341 1 -0.119435 0.0670741 -0.109779 0.175543 
512 1 0.0994259 0.0119796 0.102789 0.143508 
300 1 -0.0378946 -0.0525249 0.0386882 0.075443 
393 1 -0.00386095 -0.100327 -0.0457099 0.110317 
2740 1 0.046863 -0.0362226 0.0176397 0.0618012 
3197 1 -0.0876165 0.117448 -0.0264636 0.148899 
4006 2 0.0195109 0.0570518 -0.084697 0.103967 
286 1 -0.0451889 -0.122441 -0.00967007 0.130871 
886 1 0.0392883 -0.0630661 0.0349941 0.082131 
277 1 -0.0521338 0.0229993 0.00203207 0.0570179 
364 1 0.00765823 0.0711358 0.0738352 0.102813 
1367 1 0.00834736 -0.0436052 0.00128243 0.0444155 
411 1 0.0625972 0.00325373 0.00397049 0.0628073 
483 1 -0.0546508 0.125062 0.10579 0.172681 
334 1 -0.088875 0.0183179 0.0269849 0.0946705 
356 1 0.115915 -0.117918 -0.0234444 0.167005 
4154 2 -0.00386085 -0.06324 0.105337 0.122923 
357 1 0.0444675 -0.0404397 -0.023428 0.0645105 
265 1 0.0123894 0.0786855 0.0357401 0.0873056 
3389 1 0.0219696 -0.0819294 -0.0034802 0.0848952 
362 1 0.0148616 0.0543814 0.0790208 0.0970695 
478 1 0.0064809 0.00396962 0.0466081 0.0472236 
4159 2 -0.0148085 -0.066611 -0.10073 0.121667 
2696 1 0.0218769 0.0599353 0.00766044 0.0642614 
780 1 0.0859851 0.0194614 -0.0488677 0.100798 
966 1 0.00510231 0.0716026 0.13706 0.154721 
3612 2 0.0412003 -0.0333854 0.0100449 0.0539718 
433 1 -0.0495768 0.220409 -0.0812225 0.240073 
924 1 0.0482027 0.015512 0.131805 0.141197 
2710 1 0.0669589 -0.0176308 0.0277532 0.074596 
3313 1 0.0597446 0.0475987 -0.03511 0.08407 
3482 2 -0.0665529 0.0308153 -0.0172282 0.0753372 
3290 1 -0.0367877 -0.0757991 0.0024625 0.0842906 
3192 1 0.0565942 -0.124079 0.0016327 0.136387 
468 1 0.0349737 0.0169004 0.0143562 0.0414111 
3333 1 -0.0244438 -0.0665902 -0.0503115 0.0869655 
3303 1 -0.0465283 -0.0102542 0.0452565 0.0657129 
3526 2 -0.0461501 0.0279804 -0.0612396 0.0816273 
3249 1 0.0292054 0.114049 -0.0308701 0.121709 
92 1 -0.0326217 0.0134013 0.0554195 0.0656894 
3379 1 0.0285113 0.107201 0.116677 0.160992 
1449 1 -0.0806491 -0.0244695 0.0854971 0.120053 
903 1 0.0279679 0.0813169 0.0278204 0.0903804 
160 1 0.00346126 0.0723838 -0.0242124 0.0764045 
553 1 -0.0515292 -0.0910968 0.00249115 0.10469 
3808 2 -0.0240183 0.00460948 -0.0612849 0.0659846 
462 1 -0.0321952 -0.195333 0.0815637 0.214112 
2966 1 0.02699 -0.0499561 0.0559217 0.0796951 
3022 1 -0.0750534 -0.00275869 -0.036052 0.0833089 
750 1 -0.0274375 -0.0735328 -0.0510621 0.0936335 
3162 1 0.0474483 -0.0587998 -0.123003 0.144355 
449 1 -0.0302794 -0.022157 -0.114854 0.120827 
3631 2 0.0750903 -0.213649 -0.154919 0.27438 
287 1 -0.0241797 0.000424163 -0.0330103 0.0409209 
3647 2 -0.121381 0.0607109 -0.0575983 0.147434 
2890 1 -0.0215954 0.0580486 0.0162904 0.064042 
1285 1 -0.0405424 0.106974 0.0631353 0.130664 
943 1 -0.0176473 -0.0439202 -0.0447211 0.0651183 
3305 1 0.0411882 0.081346 0.0858118 0.125209 
3209 1 0.0271877 0.0268202 -0.1623 0.166733 
3409 1 0.0794063 -0.024495 -0.0242996 0.0865785 
4318 2 -0.115648 0.0441816 0.103477 0.16135 
763 1 0.0834683 0.0343355 0.0964023 0.132058 
3883 2 0.046405 0.00167623 -0.0492205 0.0676676 
3531 2 -0.0166419 0.00133142 0.0271447 0.0318679 
3227 1 0.0048791 -0.0889815 -0.014585 0.0903008 
373 1 0.0333712 -0.0516206 -0.0247828 0.0662761 
4297 2 -0.0332623 -0.00927154 0.182289 0.18553 
3404 1 0.0572458 -0.0858488 -0.00411799 0.103267 
3221 1 0.0185944 0.0300643 0.0198839 0.0405584 
398 1 -0.00686331 0.0781954 0.0483193 0.0921758 
2732 1 0.084281 -0.0236575 -0.0298555 0.0924895 
4123 2 0.0241912 -0.0777686 0.0536157 0.097508 
1145 1 0.0277898 0.00959233 0.0681531 0.0742235 
836 1 0.118476 -0.0589025 -0.103641 0.16807 
309 1 -0.000749034 0.0725677 0.0658634 0.0980032 
394 1 0.0448626 0.0476541 0.0642233 0.0916962 
412 1 0.0244758 0.0532328 0.0266449 0.0643641 
1212 1 0.00971851 0.00323692 -0.0572108 0.0581205 
3573 2 -0.017719 0.0796665 0.129945 0.153448 
3360 1 -0.0664266 0.0378463 -0.0667333 0.10148 
3319 1 0.011797 -0.0149122 0.0524977 0.0558351 
3588 2 0.0145751 0.0716266 0.0824635 0.110195 
2365 1 0.0548779 -0.0292933 -0.0678472 0.0920485 
306 1 -0.11313 0.138687 -0.0938177 0.202075 
3093 1 -0.0266299 0.0458811 0.0527282 0.0747963 
2745 1 -0.0145328 0.0064541 -0.0316033 0.0353784 
355 1 -0.146872 0.0080842 -0.029408 0.150006 
3097 1 0.0812314 0.07064 -0.111456 0.154955 
228 1 -0.0123808 -0.001763 -0.0373412 0.0393797 
3324 1 0.0218041 0.125284 -0.030648 0.130808 
951 1 -0.0788524 0.0489594 0.0122756 0.0936238 
2737 1 -0.163622 0.0107385 -0.0203012 0.165225 
2959 1 0.100972 0.125026 0.0383754 0.165226 
4284 2 -0.0356158 -0.00104494 0.0607663 0.0704424 
4225 2 0.0376682 0.0636869 0.0538525 0.091515 
3483 2 -0.0182707 0.108564 -0.0530744 0.122217 
2961 1 -0.0194597 0.00791942 -0.0384319 0.0437996 
4116 2 -0.046507 -0.0375719 0.0739744 0.0951145 
716 1 0.0766837 0.00740529 -0.13392 0.154499 
389 1 0.00653042 -0.153907 -0.0409918 0.159407 
601 1 -0.062678 0.0980141 0.0606891 0.131219 
3094 1 -0.0272398 -0.00190803 0.0562571 0.0625341 
3617 2 -0.134961 -0.0641939 0.0913934 0.17518 
206 1 -0.0319404 -0.0868437 0.0495495 0.104963 
71 1 -0.0171597 0.0229858 -0.00383432 0.0289397 
3561 2 0.0267905 0.115126 -0.150432 0.191315 
3676 2 0.100289 -0.0170822 0.080156 0.129517 
3257 1 0.0267095 -0.0105318 -0.0411987 0.050216 
962 1 0.0214019 -0.0269614 -0.0877979 0.094305 
1324 1 -0.0301573 -0.0173696 0.0348331 0.0492393 
4185 2 -0.0606443 -0.0958862 -0.0202114 0.115241 
388 1 0.0200695 0.0850777 0.0577042 0.104741 
1313 1 0.0224685 0.0913512 -0.000563359 0.0940755 
444 1 0.0537741 0.133508 -0.152088 0.209397 
3668 2 0.104784 0.133736 -0.057366 0.179321 
838 1 -0.182338 0.00369174 0.036784 0.186048 
460 1 -0.167625 0.00945926 -0.00253167 0.167911 
499 1 -0.124063 0.0493156 -0.00849558 0.133775 
3548 2 -0.239919 -0.0222234 -0.00318931 0.240967 
291 1 0.063725 0.110965 -0.0259221 0.13056 
482 1 -0.108862 0.122538 -0.0648139 0.176259 
1314 1 -0.0331028 0.044493 0.0551513 0.0782118 
3672 2 -0.00299971 0.140942 0.113868 0.181217 
375 1 0.0917368 -0.00356619 -0.0154842 0.0931028 
94 1 -0.0689467 0.00624736 -0.0483372 0.0844344 
3281 1 -0.112749 0.0410336 -0.00286356 0.120018 
37 1 0.0160942 0.0285565 0.0828535 0.0891022 
3321 1 0.053777 -0.00372637 0.0194303 0.0573008 
4264 2 0.109055 -0.0864977 0.00939485 0.13951 
3664 2 -0.112337 0.00846284 0.0324017 0.117222 
3380 1 -0.0397899 0.0640028 0.083861 0.112749 
901 1 -0.0560995 0.0446518 0.0377626 0.0810367 
4309 2 -0.0396822 0.0168354 0.0156191 0.0458483 
392 1 0.0447751 0.0465257 0.0289395 0.0707597 
436 1 0.159652 0.157235 -0.0777841 0.237196 
792 1 0.0533992 -0.0486609 0.04353 0.0843458 
3293 1 0.116712 0.00912572 -0.00957328 0.117459 
3392 1 -0.0459904 0.0046611 0.0162781 0.0490083 
318 1 -0.0768537 -0.14128 0.00791021 0.161025 
3350 1 -0.101375 -0.0801373 -0.0145316 0.130038 
3314 1 -0.00323052 -0.0763349 -0.0308612 0.0824006 
2861 1 -0.00774022 0.0566094 0.0701221 0.0904524 
3180 1 -0.141135 -0.0335174 0.0761096 0.163814 
3150 1 0.0393866 0.0632511 0.0662767 0.0997226 
3320 1 -0.142903 -0.240067 0.0900768 0.293543 
3095 1 -0.115193 -0.00391331 0.0430375 0.123033 
2479 1 0.0694191 -0.0554606 -0.0187339 0.0908066 
614 1 0.113706 -0.00596756 0.0266536 0.116941 
771 1 -0.0135901 0.0641603 0.0302489 0.0722235 
4271 2 -0.0976007 0.10398 0.0252995 0.144837 
1172 1 -0.0332006 -0.0249399 0.0733399 0.0842794 
652 1 -0.100127 0.0352231 0.00746877 0.106404 
3568 2 -0.108603 0.0306814 0.040306 0.119835 
3433 1 0.0540387 -0.0381647 0.00774118 0.0666082 
3419 1 -0.120432 0.0653142 0.042534 0.143454 
248 1 -0.0408246 0.0132108 0.035313 0.0555714 
3560 2 -0.104382 -0.0753182 0.0389296 0.134476 
3535 2 -0.0664755 -0.00960387 0.0397817 0.0780629 
4028 2 -0.00469325 -0.0927446 0.128562 0.158593 
3082 1 0.00119825 0.0311373 -0.0177453 0.0358589 
3487 2 0.0426745 0.0339448 -0.0280593 0.0613245 
328 1 0.00240008 -0.00348518 0.0513309 0.0515051 
325 1 -0.0141012 0.0131325 0.0572155 0.0603732 
292 1 -0.0873315 0.00248012 -0.0505266 0.100925 
3444 1 -0.0876324 -0.0304678 -0.0358442 0.0994612 
908 1 0.0265613 -0.183334 -0.105313 0.213091 
3504 2 0.265326 -0.158141 0.0489776 0.312738 
423 1 0.103055 0.0793148 0.028112 0.133047 
502 1 0.0181117 -0.0641451 0.0373436 0.0764014 
3435 1 0.0212128 -0.0659468 -0.0714555 0.0995231 
430 1 -0.123475 -0.0397718 0.127726 0.182049 
439 1 0.0125669 0.063109 0.0333039 0.0724556 
3331 1 0.00998926 -0.0315164 -0.00728024 0.0338537 
4182 2 0.0370957 -0.00389088 0.0351409 0.0512456 
874 1 0.0638004 -0.112406 0.101656 0.164437 
980 1 -0.0373949 -0.0329199 0.0670807 0.0835579 
810 1 -0.0117023 0.0423798 0.0527858 0.0686974 
3312 1 -0.00788288 -0.0280866 0.0981218 0.102366 
1442 1 0.0250539 -0.14981 -0.0602793 0.163415 
225 1 -0.0664115 -0.0692092 0.143363 0.172491 
4280 2 -0.0624027 0.0696196 -0.00184689 0.0935114 
416 1 0.0160399 0.0330728 0.0343304 0.0502958 
365 1 -0.0216861 -0.0657383 -0.0230996 0.0729753 
3799 2 -0.0256 -0.0744294 -0.0726986 0.107146 
2819 1 -0.0299474 -0.0764145 0.133027 0.156308 
382 1 0.122334 0.109757 -0.0914734 0.188095 
404 1 0.04234 0.0350697 -0.185171 0.19316 
2776 1 0.0783404 0.0832442 0.152425 0.190526 
2973 1 -0.0528488 -0.0866562 0.0529597 0.114486 
957 1 -0.00287371 0.0327033 0.00785781 0.0337566 
795 1 0.0312918 -0.132242 0.175883 0.222266 
490 1 -0.0942477 0.00355698 -0.00849554 0.0946966 
3266 1 -0.123369 -0.00546572 0.0977433 0.157491 
2884 1 -0.0559764 0.0214833 0.00822902 0.0605194 
4298 2 -0.203424 0.148156 -0.0306123 0.253512 
4285 2 0.0243393 0.0581972 0.0938208 0.113056 
496 1 -0.00313818 -0.0369437 0.0840301 0.0918463 
2993 1 -0.0137075 0.0424078 0.00100691 0.0445795 
4256 2 0.0397204 -0.00347558 0.0221797 0.045626 
471 1 -0.00182909 0.0551284 0.117204 0.129534 
517 1 0.0169729 -0.0659473 0.0222259 0.0716319 
279 1 0.0145995 0.0854385 0.0568559 0.10366 
187 1 0.0643959 0.104018 0.0356795 0.127435 
917 1 -0.0639872 -0.0641869 -0.0581064 0.10766 
3322 1 0.0266919 0.0894437 0.0494635 0.105637 
3863 2 -0.186455 0.0962562 -0.010626 0.210104 
274 1 -0.0555495 -0.0454497 -0.0265465 0.0765254 
1091 1 0.0227699 0.053647 0.152709 0.163452 
3396 1 0.0535192 0.0247097 0.0246602 0.0638983 
349 1 0.124769 -0.0247263 0.107145 0.166309 
2545 1 -0.0777489 -0.00828514 -0.0298922 0.0837083 
3327 1 -0.115856 -0.0527493 -0.0187859 0.128678 
3674 2 -0.0430511 0.0455432 0.0867939 0.107055 
1418 1 0.198916 -0.00875139 0.0913346 0.219057 
443 1 0.0790948 0.103138 0.0826994 0.154054 
855 1 0.0269407 0.0341901 -0.145232 0.151615 
3420 1 0.0407266 -0.0364095 -0.0174006 0.0573331 
2869 1 -0.0773264 -0.231801 0.0136274 0.244739 
4307 2 -0.0101653 -0.153408 -0.0738838 0.170576 
3476 2 0.0508047 -0.0948878 -0.0921621 0.141699 
177 1 -0.0476468 0.0175827 -0.029001 0.0584844 
363 1 -0.0781051 -0.165253 -0.0986507 0.207704 
1450 1 -0.0294615 0.0334256 0.0146572 0.0469051 
3559 2 -0.00685077 0.00464923 -0.0440315 0.0448032 
347 1 -0.103632 -0.157365 -0.0499676 0.194937 
4237 2 -0.0480172 0.0110539 0.0116486 0.0506313 
319 1 -0.0987224 -0.00509748 0.0182114 0.100517 
830 1 -0.0877363 -0.0314202 0.00596532 0.0933835 
295 1 -0.0472926 -0.0158246 -0.06519 0.0820777 
937 1 0.00871431 -0.0179543 0.0576383 0.0609956 
268 1 0.0834675 0.011505 0.100501 0.131148 
854 1 -0.0292235 0.0838049 -0.0462175 0.100067 
442 1 0.0279907 0.0326765 -0.0788298 0.0898074 
875 1 0.07477 -0.0302544 0.00934563 0.0811987 
501 1 0.0952445 -0.000904318 0.0315837 0.100349 
1289 1 0.049327 0.0409667 0.00911228 0.0647647 
3291 1 0.159833 -0.130374 0.0275135 0.208088 
314 1 0.0640394 0.0464339 -0.0600267 0.0992993 
474 1 0.00102147 0.0404432 -0.0383516 0.0557453 
3070 1 0.0614314 0.0608765 0.00865513 0.0869177 
964 1 0.0454387 0.109508 -0.027289 0.121661 
793 1 0.100312 0.0923002 0.0888792 0.162731 
3397 1 0.00987715 0.0112749 -0.0463511 0.0487145 
899 1 -0.0993468 0.0706537 0.0263043 0.124714 
1337 1 -0.0105055 0.0201971 0.0574129 0.0617619 
3278 1 0.0117191 -0.0212553 -0.160789 0.162611 
3544 2 0.0756305 0.00318902 -0.00680366 0.0760028 
1430 1 -0.0235985 0.024747 0.0171914 0.0382733 
3200 1 -0.0677566 -0.044344 0.0962983 0.12582 
757 1 -0.0958551 0.103888 0.0882776 0.166655 
822 1 -0.027871 0.0270986 0.103745 0.110788 
3678 2 -0.096359 -0.0597946 0.113888 0.16072 
699 1 0.000312391 -0.0305988 -0.0347419 0.0462967 
329 1 0.0144575 0.127875 -0.0946293 0.159736 
3383 1 -0.13672 0.0851879 0.0235057 0.162794 
31 1 -0.0229888 -0.108873 -0.233505 0.258663 
3240 1 -0.0961805 -0.111707 0.0280875 0.15006 
113 1 0.0241716 0.0898358 -0.0952261 0.133127 
504 1 -0.0815798 -0.254406 0.0558133 0.272934 
581 1 0.0158026 -0.00409996 0.165716 0.166518 
2795 1 -0.049992 -0.0613576 0.114433 0.139136 
3541 2 -0.00245627 0.0346119 -0.00904891 0.0358594 
786 1 0.0111163 -0.0392025 0.105128 0.112749 
800 1 0.00019031 0.0354172 -0.0679695 0.0766438 
367 1 0.0626015 -0.0164328 0.0421916 0.0772601 
2687 1 0.00529087 -0.137837 0.0419378 0.144173 
3545 2 0.0246705 0.00782927 -0.0653505 0.0702896 
491 1 -0.00731474 0.085281 0.0346377 0.092337 
781 1 -0.0435592 -0.0177355 0.184033 0.189947 
3378 1 -0.0192382 0.185615 0.0506778 0.193368 
1304 1 -0.0187135 -0.08878 0.0889416 0.127054 
3434 1 -0.0907035 0.0432653 -0.0559395 0.115014 
2814 1 -0.00699843 0.161262 0.0148458 0.162095 
1723 1 -0.0274495 -0.0263299 0.0036647 0.0382122 
3264 1 -0.0237447 -8.74849e-05 0.0932065 0.0961835 
440 1 0.0321762 -0.0582789 0.0866708 0.109287 
431 1 0.0822495 0.0474018 0.0361285 0.101574 
107 1 -0.0357847 0.0834442 0.0400645 0.0992404 
1254 1 0.0044971 0.0266864 -0.149427 0.151858 
968 1 0.0614453 0.0708538 -0.0159407 0.0951309 
801 1 0.01108 -0.04723 -0.0581619 0.075738 
2656 1 0.0235271 0.10149 -0.113579 0.154123 
421 1 0.0428055 -0.00505925 -0.194854 0.199564 
4152 2 -0.0310848 0.12544 -0.0781101 0.151005 
461 1 0.0463085 0.194165 -0.114863 0.2303 
3339 1 -0.0392247 0.094582 0.167592 0.196396 
840 1 -0.0475329 0.0733402 -0.0142646 0.088553 
3436 1 -0.143749 0.0219709 0.0533607 0.1549 
3371 1 -0.149608 0.146104 0.00899125 0.209308 
486 1 -0.00304206 -0.0124755 0.0652208 0.0664729 
308 1 0.0353349 0.00761611 -0.0856121 0.09293 
307 1 -0.0253784 0.018486 0.0804448 0.0863548 
208 1 -0.0294333 0.0393149 0.00537014 0.0494046 
647 1 0.0172446 0.105324 0.127326 0.16614 
402 1 0.0384668 0.000369569 0.195743 0.199487 
4143 2 -0.0642847 0.0153114 0.160324 0.17341 
2873 1 0.0489757 0.0614836 -0.00753877 0.0789664 
1354 1 -0.0885499 0.0312895 0.169376 0.19367 
128 1 0.0634703 0.164409 0.0226974 0.177691 
907 1 -0.0255127 -0.00899745 0.0746656 0.0794154 
1641 1 0.0102928 0.0870904 -0.0982673 0.131709 
1544 1 -0.0120449 -0.0598827 0.114345 0.129638 
345 1 0.0458783 0.0162691 0.0190086 0.0522573 
1300 1 -0.0204249 -0.0192085 -0.0462758 0.0541073 