ITEM: TIMESTEP
140
ITEM: NUMBER OF ATOMS
4320
ITEM: BOX BOUNDS pp pp pp
0.0000000000000000e+00 1.9309999999999999e+01
0.0000000000000000e+00 1.9309999999999999e+01
0.0000000000000000e+00 9.6549999999999994e+00
ITEM: ATOMS id type c_displacement[1] c_displacement[2] c_displacement[3] c_displacement[4] 
3196 1 0.0663519 0.118994 -0.00831535 0.136496 
381 1 0.170875 0.161938 0.00712855 0.235527 
327 1 0.117104 0.111871 -0.0587588 0.172282 
484 1 -0.0599599 0.103301 -0.0585819 0.133034 
728 1 0.00514647 0.0732294 -0.0359417 0.0817364 
817 1 0.0147783 0.000534404 0.0535744 0.0555779 
3586 2 0.0972851 0.0525194 0.0797734 0.136332 
3679 2 0.169376 0.104697 0.277321 0.341404 
4034 2 -0.0281191 0.0223735 -0.0175571 0.0399938 
2945 1 -0.115023 0.0899338 0.0414311 0.151773 
3230 1 -0.0654707 -0.0123088 -0.120945 0.138078 
3651 2 0.0542963 0.0260052 0.0926477 0.11049 
66 1 -0.0355938 0.0489001 -0.0549059 0.0816872 
400 1 -0.042366 0.101693 -0.0173461 0.111522 
677 1 0.0685979 0.0565493 -0.085337 0.123231 
623 1 0.051844 -0.0341086 0.052831 0.0815004 
87 1 -0.0154446 0.13221 -0.0368243 0.138109 
3199 1 -0.0191737 0.0306878 -0.119724 0.125073 
727 1 0.129014 -0.101804 -0.16552 0.23325 
688 1 0.103551 0.138368 0.0466459 0.179009 
58 1 -0.0223534 -0.017418 -0.070206 0.0757096 
3514 2 0.0341004 0.195936 -0.157266 0.253548 
18 1 0.143687 0.0637763 0.0683293 0.171413 
3618 2 -0.0388215 0.0592429 0.0687 0.0986738 
190 1 -0.13674 -0.030824 -0.191979 0.237706 
298 1 0.010259 -0.0139656 0.0163496 0.0238243 
389 1 0.0636288 -0.234838 0.0184318 0.244003 
110 1 0.0204834 -0.0805261 0.00134038 0.0831012 
180 1 0.0916221 0.026141 0.081321 0.125264 
106 1 -0.0464456 -0.00114774 -0.156584 0.163331 
217 1 0.0304666 -0.0261439 -0.0418278 0.0579765 
775 1 0.0129971 0.116213 -0.0996802 0.153657 
3627 2 0.0538508 0.249672 0.0232796 0.256472 
608 1 0.0873334 0.0161527 0.105334 0.13778 
255 1 0.0259875 -0.0157063 -0.148682 0.151751 
3118 1 0.0208411 0.152125 -0.0977302 0.182009 
562 1 -0.083122 -0.182642 0.044968 0.205644 
70 1 0.0168495 0.0727907 0.00833 0.0751783 
121 1 -0.0460561 0.0802035 -0.00605114 0.0926843 
1118 1 0.0113022 -0.134687 -0.040173 0.141004 
210 1 0.0723678 -0.104606 0.0904204 0.156062 
232 1 -0.0460082 0.0528154 0.0436436 0.0825287 
4214 2 0.107307 -0.0984126 0.0836515 0.167921 
3712 2 -0.0716929 0.0575014 -0.108724 0.142363 
65 1 0.00978439 0.0115319 0.0163802 0.0222941 
226 1 0.129285 -0.0782346 0.129559 0.19905 
532 1 0.0450838 -0.114498 0.0768597 0.145085 
3578 2 -0.0614387 -0.0222967 0.130936 0.146343 
473 1 0.0294123 -0.149113 -0.0832835 0.173308 
246 1 -0.00540766 -0.0693244 0.0827363 0.108076 
221 1 -0.0238676 0.0209628 0.0648073 0.0721741 
155 1 -0.290591 0.0779508 -0.0627163 0.307331 
3393 1 0.0221789 -0.123405 0.105807 0.16406 
4071 2 0.128581 0.193618 0.27182 0.357642 
2838 1 0.0679501 0.147231 0.0416102 0.167409 
536 1 0.00927272 0.0518589 0.140254 0.149821 
894 1 -0.0575943 -0.0129583 -0.109412 0.124322 
289 1 -0.00524665 0.0518957 0.0576777 0.0777651 
351 1 0.0670085 0.0825568 0.025166 0.109266 
197 1 0.00467901 -0.0355229 -0.0666009 0.0756271 
3135 1 0.0125112 0.0577925 0.0712327 0.0925775 
303 1 -0.0748336 -0.00712676 -0.0484318 0.0894231 
1415 1 0.0664076 -0.0699836 0.0312453 0.10141 
527 1 0.004474 -0.145947 -0.0625446 0.158847 
3002 1 -0.0769503 0.0394278 0.0633644 0.107196 
3189 1 -0.0104252 -0.0816482 0.0168033 0.0840087 
712 1 -0.120101 -0.0655774 -0.0490829 0.145374 
718 1 -0.0150686 -0.0535252 0.0578119 0.0802136 
3469 2 -0.0866521 -0.101901 -0.111875 0.17438 
4177 2 0.139093 -0.278714 0.055995 0.316486 
93 1 -0.00360311 -0.045259 0.0557237 0.0718783 
569 1 -2.95701e-05 0.0787045 -0.0413516 0.0889064 
639 1 -0.0335815 -0.0353572 0.0760512 0.0903417 
21 1 -0.0492077 -0.0130888 0.176493 0.183692 
96 1 -0.108762 0.0467373 -0.0841779 0.145256 
3353 1 -0.0207155 -0.0335081 -0.136317 0.141895 
823 1 0.0636108 -0.0777737 0.0355331 0.106572 
2596 1 0.0693933 -0.239261 0.0105228 0.249344 
50 1 0.0508655 0.0228561 0.0978449 0.11262 
2495 1 0.0809954 0.0426948 -0.0885659 0.127385 
28 1 -0.00832237 -0.0298503 -0.0906718 0.0958211 
3055 1 0.213778 -0.0200729 0.0812455 0.229575 
12 1 0.104995 0.0851468 -0.11741 0.17905 
3346 1 0.060505 0.0485018 -0.040228 0.0873589 
738 1 0.170409 -0.00853873 -0.0327684 0.173741 
2453 1 0.12965 -0.0122594 0.112421 0.17204 
3167 1 0.124669 -0.0555198 0.0524272 0.146197 
339 1 0.131113 0.0730487 0.016315 0.150973 
988 1 0.0128265 0.0359539 -0.187534 0.19138 
3808 2 -0.0380105 -0.0234675 -0.107302 0.116229 
1178 1 0.0514258 0.0412272 0.000655438 0.0659145 
390 1 0.164403 -0.0672023 0.0363811 0.181295 
203 1 -0.0463524 0.0248128 0.0991471 0.112225 
3582 2 0.0707983 0.166867 -0.00787983 0.181436 
3632 2 0.084329 0.0854164 -0.0390555 0.126225 
231 1 0.0892022 -0.0230659 0.11795 0.149671 
323 1 0.126422 0.061529 -0.0121765 0.141126 
3244 1 0.181298 0.0779994 -0.14352 0.24403 
118 1 0.177096 -0.0706446 -0.0100861 0.190933 
2735 1 -0.0784431 -0.0351233 -0.00335225 0.0860128 
2768 1 -0.0329855 0.033744 0.00141563 0.0472092 
2960 1 -0.151652 -0.00375332 -0.0590895 0.162801 
29 1 -0.104132 0.20815 -0.0649988 0.24165 
753 1 0.00557165 -0.138663 -0.00235156 0.138795 
3467 2 -0.0538491 -0.0806791 -0.0253003 0.100244 
3916 2 -0.218683 0.131334 0.107097 0.27666 
3251 1 -0.0889992 0.0712787 -0.00346696 0.114077 
4228 2 -0.0808881 0.098558 -0.074784 0.147815 
725 1 -0.030881 -0.0781423 -0.00833638 0.0844354 
1133 1 0.127036 0.0849251 -0.0445367 0.159166 
3611 2 0.0295013 -0.0682347 -0.035096 0.0822072 
4187 2 -0.16017 -0.0991996 -0.0448048 0.193656 
437 1 0.0484553 0.0349732 -0.173464 0.183469 
53 1 0.105496 -0.00716805 -0.115811 0.156821 
593 1 0.00115499 -0.00323562 0.00735946 0.00812188 
609 1 -0.0372878 -0.034179 -0.0703445 0.0866426 
3040 1 0.0555816 0.0620305 -0.0535975 0.0990444 
737 1 0.0959658 0.106201 0.087398 0.167709 
167 1 0.0370587 -0.0960021 0.12331 0.160609 
233 1 -0.0411993 0.0790345 0.0572931 0.105954 
610 1 -0.0902928 -0.0365062 0.157455 0.185142 
247 1 0.159253 0.0895613 0.0970504 0.206885 
89 1 -0.0524267 -0.0988655 0.00288108 0.111943 
3149 1 -0.019261 -0.119404 0.0717694 0.140638 
550 1 -0.018081 -0.198459 0.197409 0.280505 
147 1 0.0705096 -0.0367731 0.226947 0.240476 
3554 2 0.005758 -0.0174369 0.0756851 0.0778809 
3786 2 0.0629682 0.00889613 -0.0320182 0.0711991 
5 1 0.137378 0.0415608 0.144101 0.203384 
2591 1 0.0695868 0.140155 0.0746624 0.173378 
3232 1 0.0430027 -0.00231176 -0.05976 0.0736603 
1215 1 0.141007 0.026104 -0.000126367 0.143403 
859 1 0.194366 -0.00318058 0.131112 0.234475 
3152 1 0.0705215 -0.0149744 -0.0264184 0.0767818 
2936 1 0.0789442 0.1536 0.0343 0.176073 
59 1 0.100177 -0.115773 0.13343 0.203082 
2461 1 -0.0355821 -0.0520554 -0.0629768 0.0891175 
23 1 0.0024506 0.0447608 -0.0178985 0.0482689 
3743 2 0.00624116 0.0257644 0.136544 0.139093 
3023 1 -0.134861 0.0877467 -0.0319766 0.164041 
151 1 0.109867 -0.130899 0.109875 0.20317 
43 1 0.080357 0.0372554 -0.128266 0.155876 
3730 2 -0.0128362 -0.01663 -0.175994 0.177243 
1454 1 -0.0444544 -0.006767 -0.0357098 0.057421 
3460 2 0.00695705 -0.081096 0.0392501 0.0903634 
3006 1 -0.0292692 -0.0123875 -0.0288347 0.0429136 
4289 2 0.0228001 0.042896 0.0784872 0.0923047 
424 1 0.10842 0.102597 0.00415184 0.149326 
3478 2 0.147314 -0.0138587 -0.202531 0.250823 
626 1 0.115553 0.079953 0.052402 0.14997 
3483 2 -0.0350729 0.270328 0.044105 0.276139 
215 1 -0.00529982 -0.004746 0.0494347 0.049944 
2500 1 0.124344 -0.0829942 -0.100819 0.180317 
3188 1 0.180326 0.21107 -0.0321697 0.279469 
3491 2 0.0390967 0.195948 -0.00404867 0.199851 
717 1 -0.125066 0.0996156 0.0535732 0.168626 
2931 1 -0.104747 0.00207989 -0.000721425 0.10477 
691 1 -0.0910484 0.0308397 0.0299739 0.100694 
825 1 0.0908968 -0.00676321 0.096733 0.132911 
174 1 0.0593787 -0.16079 0.0256647 0.173315 
3493 2 0.0754234 -0.121929 0.159889 0.214755 
3634 2 0.0829796 0.108426 0.163241 0.212813 
140 1 0.0580228 0.138179 0.020396 0.151249 
529 1 0.054788 -0.108427 -0.020331 0.123173 
1480 1 7.27509e-05 0.0918098 -0.0951359 0.132212 
2968 1 -0.0792506 -0.0452978 0.0611095 0.10985 
3464 2 0.000555473 9.18911e-05 -0.0266346 0.0266406 
98 1 0.0219334 -0.121666 0.143748 0.189597 
216 1 0.117309 -0.0726961 -0.076466 0.157776 
40 1 0.0256457 -0.0227849 0.0928738 0.099007 
1130 1 0.0424872 0.0168682 0.08119 0.0931746 
2994 1 0.0886709 -0.138462 -0.0371039 0.168556 
3041 1 -0.0380968 -0.0929289 0.0637879 0.118979 
604 1 0.136619 -0.0438455 0.00523735 0.143578 
721 1 0.0789258 0.00434346 0.0594034 0.0988783 
3164 1 0.0582667 -0.00608977 0.0139627 0.060225 
2494 1 0.075981 0.0627949 0.00965543 0.0990431 
3010 1 0.0982155 0.0144661 0.0790467 0.126901 
64 1 0.00302169 -0.216492 -0.144602 0.260361 
193 1 0.0400838 -0.0857461 -0.0673467 0.116167 
44 1 0.0267235 -0.0703558 -0.00434512 0.0753854 
2996 1 0.119084 0.0415316 -0.163604 0.206572 
4212 2 -0.0517967 0.0219073 -0.105358 0.119428 
3279 1 -0.0516856 -0.121209 0.0235297 0.133853 
257 1 -0.0208953 -0.0225261 0.0274201 0.0411813 
178 1 0.127606 -0.0121472 -0.199472 0.237107 
330 1 0.0881955 0.248159 0.101079 0.282096 
103 1 -0.0780162 0.0141839 -0.0076205 0.0796604 
3841 2 -0.0697921 0.0363501 -0.0476084 0.0919719 
600 1 -0.0417668 0.0185719 -0.0738233 0.0868289 
338 1 -0.168504 -0.0778637 0.0340707 0.188725 
4101 2 -0.0987646 0.0427123 -0.0432038 0.115954 
949 1 -0.0963252 0.0961293 0.0459192 0.143624 
3608 2 0.0654929 0.0168225 0.0350224 0.0761504 
78 1 -0.0813628 0.0396711 0.0229162 0.0933748 
4217 2 -0.169881 -0.171037 0.0296208 0.24288 
479 1 -0.0259109 0.0775066 -0.0723611 0.109155 
3335 1 -0.0413874 -0.00682145 -0.0458961 0.0621764 
1457 1 0.037531 -0.106961 0.0391039 0.119909 
3037 1 -0.185487 0.0459705 0.00832611 0.19128 
4253 2 0.136443 0.0978369 -0.24163 0.294234 
387 1 0.0425637 -0.0513254 -4.57176e-05 0.0666781 
3736 2 -0.114385 -0.0448447 -0.187979 0.224569 
3394 1 -0.111262 -0.0284944 -0.0810247 0.140557 
508 1 -0.0348628 0.00865123 -0.0119296 0.0378494 
3537 2 -0.0151421 -0.00300194 -0.134923 0.135803 
747 1 0.0321181 0.0973646 0.0170746 0.103937 
497 1 0.0199059 -0.0184153 -0.00949344 0.0287314 
958 1 -0.133943 -0.00426099 0.143538 0.196372 
3130 1 -0.103558 0.124238 -0.0502759 0.169373 
4163 2 -0.0773054 0.130976 -0.0318865 0.155395 
3643 2 0.0344475 -0.00776938 0.0639971 0.0730933 
133 1 -0.0605104 -0.0597245 0.0733243 0.112272 
4204 2 -0.141736 -0.0560821 0.0375222 0.156978 
86 1 0.22224 0.0616816 -0.0727061 0.24183 
759 1 -0.0225533 -0.0393509 0.0540394 0.0705507 
3411 1 -0.0862346 0.0121537 0.0455898 0.0982983 
835 1 -0.0386608 0.0106517 0.105601 0.112959 
3057 1 -0.0593311 0.0223631 0.116057 0.132248 
3620 2 -0.0725989 -0.0539694 0.0596655 0.108366 
241 1 0.182079 -0.0904614 0.198957 0.284465 
704 1 0.185357 0.0724175 -0.102423 0.223812 
3599 2 -0.0294406 0.149062 -0.0578332 0.162576 
157 1 0.0619601 0.0788114 0.232509 0.253201 
54 1 0.138176 -0.0973213 0.0264325 0.171064 
493 1 0.136234 0.0836797 0.000902347 0.159883 
204 1 -0.0862714 0.039985 -0.033997 0.100982 
254 1 -0.023971 0.22348 -0.119628 0.254615 
67 1 0.165559 -0.0325778 -0.098949 0.195607 
2988 1 -0.108947 0.145789 -0.217447 0.283561 
3030 1 -0.119512 0.0232495 0.0133766 0.122485 
4050 2 0.158813 0.113307 -0.0443971 0.200078 
3479 2 -0.0246714 0.145995 0.0766809 0.166743 
674 1 -0.102251 -0.166926 -0.12269 0.231025 
2004 1 -0.159357 0.0812003 -0.142869 0.22891 
2934 1 -0.0300627 0.0118107 -0.0734654 0.0802522 
3216 1 -0.124202 0.0104196 -0.0527489 0.135341 
234 1 0.101559 -0.105485 -0.0206364 0.147876 
1036 1 0.0590086 -0.0976798 0.00689371 0.114328 
3369 1 -0.00203147 0.0375849 0.0192752 0.0422881 
3607 2 0.0165262 0.0591779 -0.0689351 0.0923427 
3139 1 -0.0112766 -0.0770942 -0.0866522 0.11653 
644 1 -0.188499 -0.155471 0.00664955 0.244433 
1278 1 0.0997018 -0.0153908 -0.0742496 0.125261 
4269 2 -0.0396501 -0.0411947 -0.0454653 0.0730495 
3007 1 -0.0141942 -0.0891024 -0.0280855 0.094496 
3644 2 0.0145798 0.0583446 -0.127292 0.140783 
4089 2 0.284807 0.173566 0.119567 0.354312 
214 1 -0.000860871 -0.00880259 0.0586003 0.059264 
640 1 -0.147179 -0.0545468 -0.0937672 0.182837 
199 1 0.021237 -0.0702999 -0.0113475 0.0743091 
245 1 0.024557 -0.153394 0.198699 0.252218 
2758 1 -0.0838432 -0.100722 -0.038992 0.13673 
3056 1 0.0105138 -0.217081 -9.89493e-05 0.217335 
3468 2 -0.00791325 -0.0912605 0.0187563 0.0935035 
563 1 0.0145535 0.0303567 -0.0590918 0.0680086 
2977 1 -0.119661 -0.0250289 0.0689113 0.140336 
1149 1 0.116085 -0.0679523 -0.081627 0.157341 
2684 1 -0.174043 0.0235966 0.0430595 0.180836 
249 1 -0.0896516 0.0247585 0.0446408 0.103166 
3096 1 -0.105021 0.0267272 0.0593727 0.123567 
240 1 -0.0571165 -0.0822879 0.104419 0.144696 
181 1 -0.0349993 0.0054115 0.15936 0.163248 
46 1 -0.0697268 0.0772974 0.0303596 0.108436 
3211 1 -0.0153967 0.019887 -0.00491857 0.025627 
4098 2 -0.0191849 0.198328 0.0410074 0.203429 
1991 1 -0.0229666 0.0158759 0.0208172 0.0348263 
2939 1 -0.084128 0.00940151 0.0899562 0.123523 
3512 2 0.00938278 0.00810114 -0.0192571 0.022902 
3603 2 -0.199659 0.113308 -0.171651 0.286647 
3701 2 -0.135352 0.25309 0.0966652 0.302851 
3513 2 -0.0273127 -0.0361131 0.0369895 0.0584667 
312 1 -0.120305 -0.0451617 0.117057 0.173825 
587 1 0.0140973 0.175627 -0.0392962 0.180521 
134 1 0.0523643 0.112389 -0.0432449 0.131314 
135 1 -0.0343772 -0.0882658 -0.212859 0.232984 
3003 1 -0.046124 -0.0390529 0.119428 0.133849 
191 1 -0.0990744 -0.0328139 0.0193371 0.106143 
685 1 -0.0304293 -0.109851 -0.0262323 0.116967 
602 1 0.0566515 -0.0340229 0.0458555 0.0804343 
195 1 -0.0967273 0.0986342 0.057963 0.149815 
3092 1 0.0222595 0.0672059 0.0451331 0.083959 
4195 2 -0.251727 -0.0871115 -0.146396 0.303952 
2995 1 -0.228621 -0.227619 -0.0563561 0.327497 
540 1 -0.194147 0.076701 0.131821 0.246887 
920 1 -0.0227201 -0.0407245 -0.259939 0.264089 
427 1 -0.212618 0.0126289 -0.163399 0.26845 
4173 2 0.0549532 0.192776 0.0159813 0.201091 
2950 1 -0.453812 -0.110268 -0.06449 0.471448 
6 1 -0.119706 0.0109318 0.0758214 0.14212 
182 1 0.111326 -0.0621563 -0.167892 0.210819 
690 1 0.00349693 -0.0615254 0.04521 0.07643 
3408 1 -0.12323 0.0813223 0.138754 0.202612 
902 1 0.0302777 0.157847 0.0872453 0.182877 
154 1 0.0132841 0.0933903 -0.0876287 0.128752 
710 1 -0.126778 -0.0166448 -0.25149 0.282129 
3115 1 -0.223573 0.0838148 -0.0176013 0.239415 
742 1 -0.00853379 -0.0830406 -0.0853711 0.119402 
2926 1 -0.0955657 -0.101373 0.0171008 0.140363 
446 1 -0.0100677 -0.00951081 0.0367916 0.039312 
580 1 -0.0989734 -0.0869968 0.294693 0.322813 
3518 2 -0.160724 0.193955 0.101844 0.271704 
354 1 0.0960939 -0.0480827 0.0757226 0.131453 
80 1 -0.157562 -0.0480825 -0.00429499 0.164791 
95 1 -0.0911973 -0.0131107 0.0659789 0.113323 
559 1 0.0653082 0.103293 -0.16445 0.204886 
205 1 -0.178876 -0.0381033 0.089402 0.203571 
694 1 -0.114094 0.0147594 0.091774 0.147166 
861 1 0.0605934 0.00222973 -0.166109 0.17683 
3549 2 0.072075 -0.215477 0.0798713 0.240842 
4014 2 0.0796584 -0.224439 0.0663528 0.247227 
3401 1 0.0902822 0.0020497 0.0744775 0.117055 
100 1 0.0301431 0.0042908 -0.0117871 0.032649 
3678 2 -0.0177774 -0.125627 0.191677 0.229866 
3341 1 -0.0913229 -0.0111404 0.0216711 0.0945178 
512 1 0.143492 0.0329986 0.0385254 0.152194 
300 1 -0.0774228 0.0356314 0.0308889 0.0906532 
393 1 -0.0501932 -0.034034 -0.00065684 0.0606473 
2740 1 0.00473249 0.0553406 0.0438248 0.0707503 
3197 1 -0.0526045 0.113207 0.000150705 0.124832 
4006 2 0.0488387 0.170627 -0.00155349 0.177486 
286 1 -0.079335 -0.114091 -0.0570024 0.1502 
886 1 0.058925 -0.0603965 0.11148 0.139813 
277 1 -0.0822935 0.010529 0.0649975 0.105393 
364 1 -0.00376291 0.0482267 -0.0769114 0.0908589 
1367 1 -0.0271027 -0.105433 0.0618768 0.125217 
411 1 -0.0517025 0.116238 -0.0602815 0.140777 
334 1 0.0102411 -0.0152218 -0.0118556 0.0218434 
356 1 0.202552 -0.143858 -0.0529014 0.254009 
4154 2 0.0716677 0.143677 -0.0575055 0.170547 
357 1 0.0427655 0.0797817 -0.066394 0.112259 
265 1 0.0822937 0.0423263 -0.0627992 0.111837 
3389 1 0.0146382 0.00572917 -0.0465224 0.0491064 
362 1 0.0106391 0.0396137 -0.027515 0.0493914 
478 1 0.00757924 0.144041 -0.0759514 0.163015 
4159 2 0.000884219 0.0389649 -0.0398465 0.0557386 
2696 1 0.0197956 0.0161054 -0.00844222 0.0268797 
966 1 0.0179703 0.0134283 -0.0281984 0.0360334 
3612 2 0.0271868 0.0584746 -0.0403478 0.0760681 
3392 1 -0.169196 0.173596 0.12643 0.2734 
780 1 0.0851269 0.0407309 -0.0890386 0.129744 
924 1 0.0662763 0.0495892 0.17675 0.195172 
2710 1 0.0648939 0.0521851 0.0323668 0.0893427 
3313 1 0.0957804 0.0601938 -0.0491812 0.123353 
3482 2 -0.0501998 -0.134741 -0.0917826 0.170585 
3290 1 0.0248111 0.0497163 -0.0682125 0.0879787 
3333 1 -0.00334921 -0.00674221 -0.0150421 0.0168208 
3303 1 0.0200959 0.0374494 0.13037 0.137123 
3526 2 -0.0646516 -0.0456852 -0.0447188 0.0909216 
3249 1 -0.105659 0.153561 -0.0254093 0.188124 
92 1 -0.0184488 -0.130105 0.0650516 0.146626 
3379 1 -0.0686088 0.00882467 0.0759543 0.102733 
1449 1 0.0103037 0.0505482 -0.0810744 0.0960955 
903 1 0.0140942 0.0873 -0.0480254 0.10063 
1077 1 -0.114538 -0.0986058 0.0922435 0.177062 
462 1 -0.0755632 -0.170921 0.0724873 0.200445 
2966 1 -0.0497413 -0.0533919 -0.100033 0.123821 
3022 1 -0.0605745 0.160836 -0.0434818 0.17728 
750 1 -0.159826 -0.0853628 0.0562108 0.189713 
3162 1 -0.0790224 0.0341631 -0.00487204 0.0862287 
449 1 -0.00449461 0.00902872 -0.147233 0.147578 
3658 2 -0.0158551 -0.0652612 0.244933 0.253974 
287 1 0.0162199 0.0325592 -0.109995 0.115854 
3647 2 -0.232966 0.0963069 -0.101268 0.271668 
2890 1 -0.0239724 -0.00334176 -0.0820584 0.0855537 
1285 1 -0.0700659 0.148762 0.252621 0.301424 
943 1 -0.0887786 -0.0733154 -0.00423569 0.115216 
3305 1 0.0842356 -0.0301492 0.110973 0.142547 
3209 1 -0.0909578 -0.0241498 -0.176966 0.200433 
3409 1 -0.0282137 -0.0622694 0.0125471 0.0695049 
3257 1 0.0397274 -0.0210113 0.00388831 0.0451094 
4318 2 -0.19782 0.187994 0.17108 0.322091 
3883 2 0.032195 -0.0300602 0.0192372 0.0480646 
3531 2 -0.027612 -0.0183163 0.0836292 0.0899542 
3227 1 0.046559 -0.0400732 0.0644906 0.0890654 
373 1 0.197329 0.00819122 0.0254149 0.199128 
4297 2 -0.0467276 0.0628804 0.152555 0.171494 
3404 1 0.118253 -0.0205975 -0.0527597 0.131117 
398 1 -0.0614343 0.0300895 -0.037068 0.0778048 
2732 1 0.079582 -0.0735808 0.0684637 0.128198 
3221 1 0.00206635 0.0506107 -0.0881264 0.101646 
836 1 0.0912617 0.0764277 0.0254542 0.121728 
309 1 0.020723 0.0899286 -0.0557705 0.107828 
394 1 0.120664 0.0526521 0.0642665 0.1465 
412 1 0.10718 0.102582 0.0592478 0.159752 
1212 1 -0.00834209 0.024435 -0.0179576 0.0314506 
3573 2 0.00806434 -0.0108736 0.0110256 0.0174595 
3360 1 0.0240958 0.15008 -0.0821293 0.172771 
3319 1 0.0597972 -0.0865736 0.0186053 0.10685 
3588 2 0.0315243 -0.0468023 0.0720277 0.0914998 
2365 1 -0.0692091 0.0804394 -0.0230819 0.108596 
306 1 -0.0466693 0.113385 0.0293071 0.126068 
3093 1 -0.0876825 0.0662642 -0.0296222 0.113827 
2745 1 0.00807746 0.0692427 0.0195444 0.0724001 
355 1 -0.11742 0.0586882 0.0826987 0.155148 
3097 1 0.0287188 0.0564533 -0.0812396 0.103013 
468 1 0.0955995 0.11397 0.130848 0.198115 
228 1 -0.0826683 -0.0732539 0.0288287 0.114155 
3324 1 -0.0318048 0.0344148 -0.0116203 0.04828 
951 1 -0.00566911 0.0483362 -0.00497357 0.048921 
2737 1 -0.178938 -0.0521024 -0.0361871 0.18985 
2959 1 0.062697 0.0853491 -0.0701308 0.127019 
4284 2 -0.210928 -0.021657 0.023217 0.213304 
4225 2 0.112385 0.0451073 0.112898 0.165563 
3337 1 -0.00331357 0.123729 0.0996848 0.158924 
4116 2 0.0626086 -0.033703 -0.0215654 0.0743021 
716 1 0.165836 -0.0864371 -0.0997729 0.211962 
483 1 -0.0262977 0.097739 0.0976588 0.140647 
601 1 0.034511 0.065663 0.0145605 0.0755953 
3094 1 -0.0597929 -0.0173007 -0.0128212 0.0635522 
3617 2 -0.0109986 -0.136785 0.0262211 0.139709 
206 1 -0.0948854 -0.0551099 -0.0507659 0.120903 
71 1 0.00160543 -0.0801435 0.0194609 0.0824881 
3676 2 0.0671012 -0.0258633 0.0543062 0.0901146 
962 1 -0.127948 -0.11891 -0.0570786 0.183761 
4185 2 -0.0791121 -0.160166 -0.0932837 0.201528 
4298 2 -0.058933 -0.0298511 -0.0309743 0.072963 
763 1 0.0434971 0.0607254 0.134812 0.154123 
3561 2 -0.0208538 0.177947 -0.00276 0.179186 
1324 1 -0.0315537 0.0578063 0.0876998 0.109674 
388 1 -0.0473599 -0.0257661 0.0679352 0.0867297 
1313 1 0.0721486 0.0122759 -0.111487 0.133362 
444 1 0.00873168 0.117019 -0.151683 0.191775 
3668 2 -0.00691859 0.162376 0.0578057 0.172497 
838 1 -0.136758 0.114599 0.0367023 0.182161 
460 1 0.0115732 -0.0532228 0.0894481 0.104726 
499 1 -0.105016 0.0704034 -0.0536049 0.137326 
3548 2 -0.506811 -0.234485 -0.0386031 0.55976 
291 1 0.159874 0.234581 -0.0376257 0.286363 
482 1 0.0858801 0.0809001 0.0427012 0.125474 
1314 1 -0.117388 0.0684278 0.031842 0.139557 
3672 2 0.130035 0.0249295 0.154695 0.20362 
375 1 0.101787 0.0350065 0.0728892 0.129996 
94 1 0.0972615 -0.0435851 -0.0431857 0.114998 
3281 1 -0.129215 0.0317232 0.0482221 0.141521 
37 1 0.0635451 0.00402272 0.0869237 0.107749 
3321 1 0.0634438 0.0416355 -0.0368293 0.0843507 
2961 1 0.0647354 0.13962 0.101333 0.184263 
3380 1 0.0257753 0.0175576 0.0770895 0.083159 
901 1 -0.0411056 0.0317842 0.0404426 0.0658446 
4309 2 0.034714 0.0283845 0.0871531 0.0980122 
392 1 0.111732 0.0140195 -0.0582858 0.126798 
436 1 0.0811696 0.0274493 -0.0521488 0.100307 
792 1 0.00713858 -0.0235198 0.134115 0.136348 
3293 1 0.0517886 0.0231013 -0.0170702 0.0592209 
3320 1 -0.130764 -0.181557 0.0672678 0.233639 
3095 1 -0.0632169 0.0729575 0.00956261 0.0970084 
318 1 -0.0851567 -0.0440811 -0.00279301 0.0959303 
3350 1 -0.0413762 -0.178251 0.0768497 0.198472 
3314 1 -0.0412594 0.0141942 -0.0321455 0.0541954 
2861 1 0.00262384 -0.0809471 0.0196748 0.0833452 
3180 1 -0.122353 0.12982 0.0379753 0.182389 
3150 1 -0.048217 0.0326229 0.131534 0.143841 
2479 1 0.0316142 0.123395 0.0715733 0.146111 
160 1 0.067157 0.0342118 0.0322958 0.0819971 
553 1 -0.170904 -0.0621034 0.148289 0.234638 
614 1 0.0543019 0.0497585 0.00264286 0.0736993 
4271 2 -0.0774503 0.196972 0.0666213 0.221889 
1172 1 -0.0086245 0.0711194 0.0422167 0.0831541 
652 1 -0.0729867 -0.0906402 -0.0369898 0.12211 
3568 2 -0.0476713 0.0458994 0.0738756 0.0991812 
3433 1 0.0117464 -0.0399993 0.0525999 0.0671168 
3419 1 -0.149115 0.025337 0.0757535 0.169162 
248 1 -0.0230311 0.0558149 0.0198553 0.0635607 
3560 2 -0.0696117 -0.185919 -0.0253733 0.200139 
3535 2 -0.105565 0.115843 0.0487832 0.164144 
3082 1 -0.0843602 0.066137 -0.0817115 0.134787 
917 1 -0.057695 -0.10513 -0.0229029 0.122088 
1304 1 0.0572559 -0.0381822 0.0373708 0.0783115 
325 1 0.0339387 0.0847405 -0.0318569 0.0966832 
292 1 -0.051571 -0.127741 -0.0333824 0.141746 
3444 1 0.0319464 -0.0722562 0.0585741 0.0983486 
908 1 0.0454957 -0.104431 -0.120823 0.166054 
3504 2 0.105125 -0.18762 0.0264669 0.216687 
423 1 0.0354543 0.0161807 0.0551571 0.0675361 
502 1 -0.065518 -0.0572263 0.000140233 0.0869912 
3435 1 0.0214451 -0.0867053 0.0236281 0.0923905 
430 1 -0.253286 -0.0971508 0.137812 0.304277 
439 1 -0.0338487 0.0225224 0.0353283 0.0538617 
3331 1 -0.0536025 -0.167012 -0.0779555 0.191946 
4182 2 0.0305357 -0.140006 0.08291 0.165555 
874 1 -0.0123719 -0.277777 0.0795801 0.289217 
980 1 -0.0134513 -0.125304 0.0919595 0.156008 
810 1 0.0239841 -0.0193772 -0.0321486 0.0445449 
3312 1 0.0112188 -0.0352752 0.0684894 0.0778524 
1354 1 -0.0149407 -0.0535558 0.227095 0.233802 
225 1 0.0178133 -0.135563 0.147982 0.201478 
4280 2 -0.168699 0.0130276 -0.0304701 0.171923 
416 1 0.000666239 0.0965886 -0.0189525 0.0984327 
365 1 -0.0342831 -0.161164 -0.0384799 0.169203 
3799 2 -0.0673343 -0.125449 -0.0177386 0.143478 
2819 1 0.0349869 -0.0642084 0.0579646 0.0933096 
382 1 -0.0302376 0.0340956 0.0959161 0.106192 
404 1 -0.00309856 0.0148346 -0.0588119 0.0607331 
2776 1 -0.0248283 0.0491557 0.183709 0.191785 
2973 1 0.0212523 -0.0271545 -0.00268055 0.0345863 
957 1 0.0740216 -0.104932 -0.0227688 0.130416 
795 1 0.0543297 -0.0281298 0.0408002 0.0735368 
490 1 -0.018419 0.0176571 0.0829867 0.0868207 
3266 1 -0.0455907 -0.0161716 -0.0198883 0.0523028 
4285 2 -0.0261936 0.0210206 0.185441 0.188458 
496 1 -0.148368 -0.0417475 0.0758019 0.171761 
2993 1 -0.0278675 0.0989319 0.162989 0.19269 
4256 2 -0.0518592 0.00384321 0.108357 0.120189 
471 1 -0.045678 0.0697593 0.157608 0.178306 
517 1 0.0136837 -0.0604519 0.0996044 0.117315 
279 1 -0.0816237 0.120148 0.0176313 0.146317 
107 1 -0.13318 -0.0439654 -0.13035 0.191471 
22 1 -0.0231736 -0.0783319 0.0871193 0.119426 
4028 2 -0.146692 -0.0829396 0.0652338 0.180701 
187 1 -0.0487613 -0.0684562 0.113067 0.140883 
3322 1 0.20901 0.136493 0.115281 0.274964 
3863 2 -0.157363 -0.0713711 0.0518337 0.180398 
274 1 0.0314433 -0.113117 -0.0821043 0.143267 
1091 1 -0.066482 0.000816248 0.030079 0.0729744 
3396 1 0.104088 -0.172372 0.0756412 0.2151 
349 1 0.0474155 0.0314063 0.0610851 0.0834625 
329 1 -0.0985146 0.064022 -0.125614 0.171997 
2545 1 -0.0612285 0.0438941 0.0192823 0.0777652 
3327 1 -0.0401007 0.00521789 0.0288143 0.0496543 
3674 2 0.032902 0.00430809 0.194611 0.19742 
1418 1 0.00893412 -0.0405858 0.0355104 0.0546627 
443 1 0.0196494 -0.141542 0.00437708 0.142966 
855 1 -0.0468073 -0.0967379 -0.0895347 0.139877 
3420 1 -0.0478651 -0.0209382 0.113139 0.124619 
3476 2 0.0725679 -0.115729 -0.125766 0.185678 
2869 1 -0.155418 -0.10799 0.128954 0.22901 
4307 2 -0.0651552 0.0858257 -0.0793587 0.133825 
177 1 -0.17912 0.138664 0.0129455 0.22689 
363 1 -0.0559677 -0.166236 -0.122472 0.21393 
1450 1 -0.107035 0.0267722 -0.0546095 0.123107 
3559 2 -0.0733154 0.0740563 0.0403432 0.111746 
347 1 -0.102457 -0.0520205 -0.135032 0.177305 
4237 2 0.0974686 -0.0711507 -0.121772 0.171438 
319 1 -0.153551 0.0703297 0.0178666 0.169834 
830 1 -0.0649029 0.0129935 0.0230765 0.070098 
295 1 -0.0941931 -0.132544 -0.0307907 0.165495 
937 1 -0.0374953 -0.00565629 -0.0759909 0.0849265 
268 1 0.0876527 -0.00457614 0.0682401 0.111178 
854 1 0.0232183 0.0123101 -0.00178485 0.0263403 
442 1 -0.0131976 -0.0412604 -0.0631106 0.0765477 
875 1 0.0282279 0.0354014 0.0358201 0.0577335 
501 1 0.135492 -0.0594242 0.108824 0.183663 
1289 1 -0.0530945 0.0516592 0.0627665 0.0970944 
3291 1 0.306057 -0.0242385 0.041844 0.309854 
314 1 0.081342 -0.0124741 0.000309179 0.0822934 
474 1 -0.0629458 0.105626 -0.100966 0.159101 
3070 1 0.0481503 -0.00492045 -0.0377748 0.061397 
964 1 -0.0482479 0.157404 0.00758639 0.164808 
793 1 -0.0743739 -0.0726264 -0.0427546 0.112401 
3397 1 -0.024799 -0.0210069 -0.107765 0.11256 
899 1 -0.0759609 0.0149471 0.0182676 0.0795435 
1337 1 0.0583664 -0.0555108 0.142229 0.163454 
3278 1 -0.0340544 -8.98419e-05 -0.0555445 0.0651529 
3544 2 0.0256115 0.0140088 0.130611 0.133833 
1430 1 -0.0665013 -0.00138789 0.14393 0.158557 
3200 1 0.0510709 0.108474 0.149929 0.191972 
757 1 -0.066337 0.0214098 0.155995 0.170861 
822 1 -0.0425147 -0.0427335 0.176486 0.186496 
85 1 0.105438 -0.0477439 0.209282 0.239156 
699 1 0.0363346 0.07369 -0.143176 0.165075 
3383 1 -0.0950679 0.0835066 -0.102401 0.162779 
3240 1 -0.247774 -0.17509 0.0414461 0.306213 
113 1 0.0262194 -0.0640633 0.0217943 0.072571 
504 1 -0.0789953 -0.0224217 0.222407 0.237082 
2795 1 -0.0512 -0.0815509 0.121261 0.154843 
876 1 0.027883 -0.0382444 0.0394849 0.0616373 
581 1 0.00027571 -0.0267436 0.156962 0.159225 
3541 2 -0.115827 0.109355 0.108599 0.192791 
786 1 0.0376584 -0.0537768 0.104301 0.123243 
800 1 0.0679745 -0.108685 -0.0205832 0.129833 
367 1 0.231822 -0.13947 -0.0208053 0.271342 
2687 1 0.0167463 0.042734 -0.00326652 0.0460142 
3545 2 0.0159093 0.0196199 -0.0836833 0.0874125 
491 1 -0.0289583 -0.0558582 -0.0281176 0.0689153 
31 1 -0.0570957 -0.130345 -0.275938 0.31047 
3434 1 -0.0395669 -0.00651778 -0.0342658 0.0527462 
2814 1 0.023055 0.104656 0.0795039 0.133436 
1723 1 0.0329597 -0.014457 -0.111141 0.116824 
3264 1 0.042698 0.0010419 -0.0363036 0.0560549 
440 1 -0.146974 0.102101 0.0149409 0.17958 
431 1 0.0666829 -0.100786 -0.0420103 0.127943 
1254 1 0.0125132 -0.0166987 -0.0629003 0.0662712 
968 1 0.132374 0.0818288 0.144236 0.212186 
801 1 -0.111443 -0.175258 -0.019261 0.208581 
2656 1 0.0352444 0.0907511 -0.0220012 0.0998097 
421 1 0.0354338 -0.0855154 -0.098867 0.135437 
4152 2 0.0318611 0.158388 -0.0961991 0.188032 
461 1 0.0737726 0.292811 0.0604219 0.307947 
840 1 -0.0463772 -0.103445 -0.0752658 0.136076 
3436 1 -0.24612 0.0418403 0.0378072 0.252497 
3371 1 -0.061375 0.305424 -0.0214604 0.312268 
486 1 0.000119942 0.128944 0.0736928 0.148516 
308 1 -0.000128808 -0.09929 -0.161461 0.189547 
3192 1 -0.0114846 -0.0884227 -0.0642256 0.109888 
3339 1 -0.0025322 0.0932525 0.058093 0.109896 
4143 2 -0.144025 -0.0351864 0.0655289 0.162096 
2873 1 -0.138628 -0.0290557 0.124003 0.188252 
2884 1 0.0426033 0.00160087 0.0162244 0.0456162 
781 1 0.0010878 0.101574 0.21956 0.24192 
3378 1 -0.0137831 0.256855 0.0501008 0.262059 
307 1 -0.00045673 0.0619144 0.0994717 0.117168 
208 1 -0.10415 0.0210707 -0.0912397 0.140057 
647 1 0.0109685 0.101994 0.151093 0.182626 
402 1 -0.01764 -0.192573 0.133512 0.234991 
275 1 0.161817 0.150021 0.0994473 0.242035 
3234 1 -0.0245614 -0.043815 -0.0701932 0.086314 
4264 2 0.0785907 0.000546249 0.0612373 0.0996333 
771 1 -0.0900955 0.0995004 0.0735889 0.153078 
128 1 0.0461297 0.063606 -0.0231213 0.081904 
907 1 -0.0110198 -0.0941384 0.0650217 0.11494 
1641 1 -0.102902 0.1138 -0.0149013 0.154147 
345 1 0.0110575 0.0253754 -0.0158731 0.0319082 
1300 1 0.0134253 -0.00731534 -0.0418436 0.0445493 
1934 1 0.0272547 -0.00207437 0.0308925 0.0412489 
891 1 -0.159595 -0.152401 0.0282652 0.222476 
3778 2 -0.0905396 -0.200625 -0.292914 0.366397 
1269 1 0.0118539 -0.0710174 0.0562283 0.0913543 
1535 1 0.076431 -0.0132857 -0.0898313 0.118692 
573 1 0.0252301 -0.00361569 0.0200596 0.0324349 
3844 2 0.0699072 0.0171924 -0.157185 0.172887 
631 1 0.076813 0.128356 0.0940249 0.176681 
606 1 0.146356 0.053735 0.146314 0.213812 
3600 2 0.144761 0.102444 -0.102534 0.204851 
627 1 0.0234519 -0.0029716 -0.10091 0.103642 
1474 1 -0.0453254 0.061619 0.154682 0.172563 
1569 1 -0.0121846 -0.0873829 0.0292151 0.0929395 
63 1 -0.00813395 0.00436607 0.167563 0.167817 
577 1 -0.0612478 -0.0063797 0.127845 0.141903 