ITEM: TIMESTEP
180000
ITEM: NUMBER OF ATOMS
4320
ITEM: BOX BOUNDS pp pp pp
0.0000000000000000e+00 1.9309999999999999e+01
0.0000000000000000e+00 1.9309999999999999e+01
0.0000000000000000e+00 9.6549999999999994e+00
ITEM: ATOMS id type c_displacement[1] c_displacement[2] c_displacement[3] c_displacement[4] 
381 1 0.0144255 -0.239598 0.0473167 0.244651 
303 1 0.396756 -0.170925 -0.764019 0.877699 
2478 1 0.703756 -0.476399 0.303143 0.902289 
327 1 0.386405 -0.0459488 0.0607319 0.393838 
728 1 0.0150068 0.131153 0.358491 0.382024 
4053 2 0.329985 -0.324747 0.0685901 0.468034 
484 1 0.454067 -0.120409 0.397505 0.615374 
4289 2 -0.0754812 0.16931 0.0483731 0.191581 
3230 1 0.136515 0.0435969 0.0850819 0.166661 
3651 2 0.077242 -0.109624 0.263809 0.295937 
2939 1 0.0685781 0.122014 0.544527 0.562228 
87 1 0.134832 -0.313395 -0.56003 0.655767 
66 1 0.286307 0.0174163 -0.232595 0.36929 
2945 1 0.128249 -0.0344224 0.494939 0.512443 
3478 2 0.018604 0.188209 0.0485383 0.195255 
677 1 0.186488 -0.102277 0.0615394 0.221417 
688 1 0.19858 -0.258674 0.147145 0.357768 
727 1 0.118958 -0.0860164 -0.211786 0.257688 
58 1 -0.184913 -0.201833 -0.0428863 0.277072 
3514 2 0.101577 -0.0394931 -0.156575 0.190771 
59 1 0.0412067 0.0426594 0.0224872 0.063431 
18 1 -0.131077 -0.0813447 0.00902532 0.154531 
110 1 -0.012444 0.0459387 -0.128246 0.136792 
190 1 -0.0731409 0.0544277 -0.111161 0.143766 
2052 1 0.265638 -0.00515221 -0.158242 0.309242 
106 1 -0.133354 0.0237283 0.196235 0.238442 
217 1 -0.00727017 0.135456 0.156721 0.207274 
3627 2 0.0666649 0.0826306 -0.0408956 0.113774 
775 1 0.251822 -0.126622 0.0200825 0.282579 
3118 1 -0.00565532 -0.208678 -0.232401 0.312392 
3346 1 -0.0467144 0.137561 -0.0667063 0.159859 
608 1 -0.216565 -0.0317058 -0.221332 0.311277 
65 1 0.156072 -0.794226 -0.42167 0.912666 
562 1 0.0899162 0.156695 0.14073 0.229005 
70 1 0.0580211 -0.0949546 -0.062831 0.127791 
121 1 0.0275378 0.0656175 -0.223921 0.234956 
210 1 -0.0879606 -0.0387044 -0.0597644 0.113167 
1118 1 -0.0243272 -0.185321 0.151539 0.240624 
215 1 -0.0803717 0.068966 0.123054 0.162352 
4214 2 0.118388 -0.037499 -0.0570937 0.13668 
2961 1 -0.486534 0.405357 -0.068019 0.636911 
4170 2 -0.339557 -0.533638 -0.585789 0.862101 
232 1 0.213356 -0.142638 0.185122 0.316444 
298 1 0.0669437 -0.0869622 -0.0379616 0.116125 
226 1 0.183929 -0.120062 0.309607 0.379607 
3393 1 0.131075 -0.337948 0.0201009 0.363034 
3578 2 0.0657421 0.0971007 0.517305 0.530429 
532 1 0.230019 -0.234483 0.280679 0.432055 
473 1 0.127144 -0.161204 -0.186208 0.277175 
246 1 0.0629701 -0.292635 0.271557 0.404158 
1454 1 -0.111865 0.059622 0.0679571 0.143829 
3401 1 0.253285 -0.20834 -0.112666 0.346775 
3006 1 0.0898063 -0.0393316 0.0959148 0.137156 
4225 2 -0.377224 1.37635 -1.14739 1.83116 
817 1 0.0740512 0.0181123 0.413947 0.420909 
351 1 -0.101632 0.147825 0.152982 0.235765 
4071 2 0.00143209 0.0577024 0.457588 0.461214 
3135 1 0.099263 0.580479 -0.470775 0.753949 
289 1 0.0783376 -0.00167539 0.293584 0.303861 
197 1 -0.0418877 0.62568 -0.238673 0.670966 
1133 1 0.364183 -0.0852048 0.00967433 0.374143 
894 1 0.145419 0.347712 -0.285007 0.472524 
527 1 0.199258 0.148855 0.165995 0.299025 
1415 1 0.283119 0.12968 0.249179 0.398828 
718 1 0.111504 0.0954373 0.220806 0.265135 
3189 1 0.107658 0.670034 0.0467003 0.680233 
712 1 0.161001 0.105336 -0.257218 0.321214 
3002 1 0.0715219 0.0163677 0.356611 0.36408 
7 1 -0.0332205 -0.275192 0.17976 0.330375 
4177 2 0.180908 -0.373033 -0.013434 0.414803 
93 1 -0.0540946 0.191168 0.0303383 0.200977 
569 1 0.0132588 -0.124445 -0.00447695 0.12523 
639 1 -0.212785 0.0605042 -0.0632374 0.230081 
21 1 0.0573497 -0.00801967 -0.042365 0.0717502 
3353 1 -0.167389 -0.314258 -0.0728573 0.363435 
167 1 0.0653132 0.127677 0.0619437 0.156218 
2596 1 0.190309 -0.200496 -0.115079 0.299432 
823 1 0.0135096 0.189961 0.096523 0.213505 
28 1 -0.144233 0.131694 -0.0352396 0.198465 
50 1 0.119313 0.272439 0.312874 0.431682 
2495 1 0.151454 0.0185676 -0.0322568 0.15596 
3055 1 0.155893 0.00941375 -0.0920623 0.181292 
12 1 0.0548194 0.181111 -0.228894 0.296983 
633 1 0.295334 -0.0311361 -0.0259748 0.298105 
988 1 -0.0852528 0.128801 -0.323542 0.358521 
2453 1 -0.216653 0.201573 0.0800815 0.306567 
3167 1 -0.0668639 0.123678 -0.0674679 0.155946 
738 1 0.000209812 0.382889 -0.0952319 0.394555 
3582 2 0.22185 -0.176997 0.143163 0.317869 
339 1 0.323909 0.313715 0.188351 0.488682 
43 1 0.230407 0.0689471 -0.337537 0.414454 
171 1 0.776392 -1.06012 -0.607687 1.44773 
390 1 0.0775884 0.194076 0.0172673 0.209723 
3632 2 0.105416 0.0352742 0.0118754 0.111794 
231 1 -0.299142 0.129324 0.0871961 0.337363 
323 1 0.138402 0.0867494 0.0360938 0.167282 
3244 1 0.121874 0.0450911 0.0142854 0.130731 
203 1 0.101011 0.080187 0.0552193 0.140294 
2936 1 0.00226832 0.125034 -0.00559598 0.12518 
424 1 -0.0731063 0.111447 -0.0207082 0.134884 
536 1 0.00966373 -0.116293 0.0275106 0.119893 
3251 1 -0.166182 0.24403 -0.689866 0.750388 
29 1 -0.37528 0.427239 -0.229762 0.613318 
553 1 -0.147804 0.561049 -0.189746 0.610431 
753 1 0.0799512 -0.230577 0.0604563 0.251422 
3491 2 -0.29356 -0.232836 -1.35268 1.40362 
546 1 -0.0480238 -0.0645127 0.0591036 0.0998069 
3877 2 0.0868369 -0.360409 -0.610996 0.714669 
3467 2 0.0453817 1.10223 -0.0514925 1.10436 
53 1 0.982608 0.359668 -0.0785837 1.04931 
437 1 0.793241 0.123429 -0.602962 1.00401 
609 1 0.251844 0.298732 0.00999393 0.390853 
593 1 0.06599 0.117252 0.123177 0.182415 
3040 1 0.289835 0.269956 0.0871756 0.405561 
725 1 0.0101964 0.166197 0.0786285 0.184141 
610 1 0.121072 0.193526 -0.041317 0.231986 
89 1 -0.0327422 0.00576318 -0.0811815 0.0877252 
3149 1 -0.000778861 0.0410587 0.027301 0.049313 
550 1 0.0783228 0.0352364 0.114198 0.142889 
147 1 -0.0348475 0.0240565 -0.0850046 0.0949676 
155 1 -0.254716 -0.0523874 0.0956206 0.277071 
3152 1 -0.00817622 0.124879 -0.313646 0.337691 
859 1 0.0195526 0.0516795 -0.0995772 0.11388 
3554 2 -0.0375621 0.0195364 -0.172411 0.177534 
3786 2 -0.108204 0.0445175 -0.0115084 0.117568 
5 1 -0.0121288 0.139798 -0.0234286 0.142265 
2591 1 -0.0555623 0.071285 -0.0851334 0.124163 
3232 1 -0.0615964 0.0969821 -0.207337 0.23704 
1215 1 -0.090574 -0.106897 -0.111011 0.178757 
821 1 -0.694778 0.327585 -0.657595 1.01117 
118 1 0.205445 0.184753 0.126071 0.303703 
3199 1 0.0100958 0.111974 -0.144439 0.183038 
23 1 0.247612 0.0372965 -0.0478865 0.254943 
3730 2 0.0743362 0.174721 0.0836005 0.207466 
151 1 0.229397 0.199262 -0.113153 0.32424 
3743 2 -0.100419 0.166707 0.0988099 0.218263 
3023 1 0.00443147 0.728025 0.183951 0.750918 
2461 1 -0.178168 0.0839368 -0.141913 0.242752 
255 1 0.0503584 -0.160573 -0.0702095 0.182343 
3611 2 0.0922077 0.144469 -0.138992 0.220663 
2960 1 0.213984 -0.644358 0.0524015 0.680979 
920 1 0.147935 0.147583 0.0349586 0.211867 
3608 2 0.0570259 0.167227 -0.13798 0.224177 
96 1 0.0676566 -0.193237 -0.302477 0.365254 
4169 2 -0.117004 0.25499 -0.103651 0.299088 
180 1 0.276621 -0.887798 0.922883 1.31012 
2735 1 -0.386405 0.114081 -0.258691 0.478795 
559 1 -0.046389 -0.172935 -0.0499106 0.185875 
3188 1 0.245103 0.629299 0.360766 0.765666 
691 1 0.294254 -0.205309 0.276928 0.453239 
140 1 -0.312938 -0.331367 0.133735 0.474994 
675 1 -0.605297 -0.568713 -1.24705 1.49831 
3130 1 -0.230251 -0.236991 0.164907 0.369289 
257 1 -0.04448 0.118604 -0.185764 0.224842 
3464 2 -0.45684 -0.821198 -0.0834389 0.943415 
22 1 0.13532 0.652005 0.0802611 0.670719 
78 1 0.0868349 0.0326461 -0.0131101 0.0936907 
1480 1 -0.363181 -0.10661 0.110765 0.39438 
2968 1 0.154389 -0.249143 0.0987312 0.309283 
133 1 0.289252 0.0573925 -0.185975 0.348636 
40 1 0.256047 -0.107947 -0.0964801 0.294145 
4094 2 1.43629 -1.62491 -1.47845 2.6247 
1331 1 -0.195065 -0.349333 0.357355 0.536458 
98 1 0.758773 0.38956 0.344478 0.919869 
517 1 0.469292 0.319182 -0.147278 0.586347 
3041 1 0.131898 -0.259367 -0.30329 0.420301 
1130 1 0.361827 0.498618 0.637885 0.886813 
721 1 0.0627795 -0.163762 -0.273087 0.324555 
604 1 0.359392 0.0591176 -0.00343297 0.364238 
2494 1 0.240211 -0.0391083 -0.295134 0.382538 
3164 1 0.330857 -0.0953568 -0.0668052 0.350745 
195 1 -0.497902 -0.11619 -0.147725 0.532192 
64 1 -0.215946 -0.163161 -0.196705 0.334585 
193 1 -0.0756096 0.158813 -0.0766389 0.191864 
4212 2 -0.282754 -0.156002 -0.151637 0.356764 
44 1 0.0365128 -0.0533563 -0.0632013 0.0904129 
2996 1 -0.132114 -0.114662 -0.291407 0.339882 
178 1 -0.152347 0.00307926 -0.229091 0.275139 
3279 1 -0.124972 0.116037 -0.202019 0.264375 
2981 1 -0.0494435 -0.150127 0.0769026 0.175775 
3196 1 0.136201 -0.191184 -0.692754 0.731444 
2977 1 0.0520592 0.227927 0.175342 0.292242 
330 1 -0.0347599 0.140797 0.0508731 0.153689 
600 1 0.0363147 -0.0242258 -0.121637 0.129233 
338 1 -0.157141 0.0660369 -0.173189 0.242999 
4101 2 -0.0266954 0.0504817 -0.14356 0.154501 
234 1 -0.0523393 0.151331 -0.300987 0.34093 
2684 1 0.0695686 -0.562237 -0.0945263 0.574356 
343 1 0.411491 0.485538 -0.267274 0.690295 
4217 2 0.0412612 -0.0936267 -0.14635 0.178569 
479 1 0.0789584 0.0762086 -0.0810819 0.136442 
3335 1 0.066617 -0.0416974 -0.0323524 0.0849893 
1457 1 -0.19932 -0.122766 -0.0483224 0.23903 
3037 1 -0.071787 0.183944 -0.132312 0.237687 
4253 2 -0.027455 -0.0281416 -0.0138605 0.0416874 
387 1 -0.0949791 -0.0239927 -0.0478387 0.109019 
3736 2 -0.153637 0.0198687 -0.267801 0.309381 
640 1 -0.0261268 0.109117 -0.272442 0.294642 
2500 1 0.34517 -0.00452739 0.418256 0.542311 
717 1 0.173507 -0.34207 0.944361 1.01928 
508 1 -0.328039 0.0672977 0.729389 0.802588 
747 1 -0.374877 0.211845 0.455661 0.626927 
174 1 0.1024 -0.0848856 0.31824 0.344917 
3537 2 0.567072 0.141558 -0.113767 0.595442 
958 1 -0.417161 0.056131 0.586629 0.722016 
4204 2 0.077546 0.0653096 0.0870878 0.133653 
759 1 0.0860285 -0.383775 -0.0718927 0.399816 
3411 1 -0.155735 0.0240684 -0.09843 0.185799 
835 1 -0.476985 0.395872 -0.323947 0.699408 
3057 1 0.155779 0.47362 -0.396293 0.636892 
312 1 0.677363 -0.266213 -0.782841 1.06889 
86 1 0.44312 0.510316 -0.305518 0.7417 
241 1 -0.603527 0.191179 0.511166 0.813686 
54 1 -0.22435 0.191048 -0.363291 0.467774 
3599 2 -0.249594 0.0740272 -0.118965 0.286234 
204 1 -0.141803 -0.36983 -0.206412 0.446641 
254 1 -0.545803 0.0952236 -0.232847 0.600987 
157 1 0.152228 0.158555 -0.102 0.242316 
704 1 0.304146 0.323393 0.497986 0.667142 
4050 2 0.170091 0.106055 0.0852369 0.217816 
493 1 -0.373772 0.72455 -0.109901 0.822652 
2988 1 -0.129359 0.120092 -0.361233 0.402051 
3030 1 -0.596151 0.521567 -0.254505 0.831986 
1036 1 0.0585062 -0.35745 -0.0633923 0.367712 
674 1 0.0403652 -0.282428 -0.331887 0.437658 
2004 1 -0.00192915 -0.18826 -0.235386 0.301417 
3303 1 0.15528 0.37365 -0.230238 0.465549 
3479 2 0.402022 0.743861 -0.411131 0.940202 
3216 1 -0.283579 -0.0468387 0.0425333 0.290551 
3139 1 0.207329 -0.0137356 0.227018 0.307751 
3369 1 -0.0796225 0.102308 -0.154786 0.201904 
3607 2 -0.035927 0.147985 -0.144838 0.210162 
1278 1 0.08713 0.155507 -0.154665 0.235999 
3477 2 0.577171 -0.564345 -0.743459 1.09743 
644 1 0.137435 -0.192379 -0.0806565 0.249807 
2934 1 -0.0599019 0.0941124 -0.0281726 0.115061 
4269 2 -0.066284 0.271541 -0.216362 0.353469 
214 1 0.052334 -0.00515878 -0.0133341 0.0542519 
4089 2 0.241047 0.00740064 0.0736763 0.252163 
199 1 -0.105111 -0.0853488 -0.0552475 0.146237 
245 1 -0.0463489 -0.131898 -0.0194184 0.141147 
2758 1 0.170783 -0.000265716 0.160081 0.234079 
3056 1 -0.102057 -0.131366 -0.0190235 0.167436 
3468 2 -0.367945 -0.115619 0.172311 0.422425 
563 1 -0.210548 0.276518 0.0625897 0.353143 
75 1 0.260717 0.061836 0.129329 0.297528 
3603 2 -0.381172 -0.946405 -0.251063 1.05072 
46 1 0.451685 -0.285765 0.515324 0.742455 
529 1 0.0952105 -0.188358 -0.611919 0.647293 
181 1 -0.547202 -0.246455 0.227088 0.641669 
3096 1 0.170244 0.423386 -0.277113 0.533882 
3701 2 0.371709 -0.442185 0.13779 0.59387 
240 1 0.426084 0.332581 -0.415839 0.681968 
1991 1 0.481416 -0.835277 0.162982 0.977759 
103 1 -0.0548289 0.0397273 -0.0418343 0.07959 
3512 2 0.144218 0.0460304 -0.11503 0.190131 
400 1 -0.0583909 -0.221418 -0.688818 0.725883 
211 1 0.982965 -0.00182368 0.180407 0.999385 
3513 2 0.21942 0.224335 -0.137149 0.342464 
1102 1 0.212676 0.593568 -0.372867 0.732519 
587 1 0.409314 -0.481742 0.439391 0.769855 
134 1 -0.121479 -0.419809 -0.256736 0.506863 
685 1 0.451751 -0.202392 0.00816739 0.495084 
127 1 -0.335435 0.158031 0.0450292 0.373522 
233 1 0.132323 0.218322 0.21325 0.33264 
154 1 0.0305823 -0.154415 0.0881666 0.180423 
602 1 -0.0223402 0.153488 0.433583 0.460491 
3620 2 -0.337798 1.30888 0.660926 1.50469 
3003 1 0.132803 0.182004 -0.000746611 0.225306 
191 1 -0.174211 0.508635 0.472388 0.715688 
3092 1 0.337373 0.0487429 0.0370517 0.342884 
1179 1 -0.175203 0.193737 0.0413068 0.264455 
216 1 -0.00059501 -0.138119 0.267475 0.301031 
4041 2 0.635442 -0.202054 0.559482 0.870421 
95 1 -0.424402 -0.20451 0.155222 0.496019 
427 1 -0.0869917 0.036568 -0.284687 0.299919 
540 1 -0.393957 0.442514 -0.0208747 0.592837 
4195 2 0.197083 0.523736 0.369002 0.670301 
182 1 -0.0840878 -0.142464 -0.19738 0.257537 
4173 2 0.23871 0.0506798 0.0442151 0.248004 
2950 1 -0.477419 -0.232114 -0.0623416 0.534502 
690 1 0.0149624 -0.33541 -0.123807 0.357843 
710 1 -0.0128162 -0.347337 -0.111867 0.365132 
446 1 -0.028222 -0.151293 -0.0946333 0.18067 
2926 1 -0.0244166 -0.384302 -0.0220907 0.38571 
135 1 -0.010535 -0.176842 -0.0920914 0.199662 
902 1 -0.0514371 0.235615 0.0977939 0.260238 
6 1 -0.439985 0.245215 -0.226053 0.552102 
3408 1 -0.195557 -0.506035 -0.0245786 0.543064 
742 1 -0.0890447 -0.441429 -0.149286 0.474421 
354 1 -0.0416167 -0.064127 -0.136116 0.156115 
80 1 -0.301043 -0.374949 0.0303682 0.481805 
3518 2 -0.234695 0.239696 0.279546 0.436672 
580 1 -0.123602 -0.0920785 -0.0083266 0.154354 
4228 2 0.643692 0.0569042 -0.0402597 0.647455 
949 1 -0.199871 0.205343 -0.0297125 0.288092 
205 1 -0.219503 -0.179365 0.165252 0.328118 
694 1 -0.212993 -0.418808 0.224151 0.520586 
861 1 -0.237984 -0.230802 0.181726 0.378061 
1077 1 -0.0661655 0.0368135 0.0400941 0.0856776 
3549 2 -0.501182 -0.275333 0.0199603 0.572181 
3341 1 -0.475239 -0.072959 0.0436792 0.482787 
512 1 -0.298127 -0.119132 0.108833 0.338994 
300 1 -0.203782 -0.0661308 0.0601301 0.222522 
2740 1 -0.235552 -0.812389 -0.687265 1.08986 
356 1 0.0710478 -1.13125 -0.280779 1.16773 
3197 1 -0.248193 0.11559 0.0464821 0.277708 
3320 1 -0.610612 -0.364413 0.199562 0.738558 
772 1 -0.370143 -0.422107 -0.063594 0.565 
4006 2 1.41392 0.111217 -0.957256 1.71111 
635 1 -0.451049 0.0815341 0.0660691 0.463096 
1367 1 -0.2438 -0.0367981 -0.165892 0.297175 
364 1 0.0512763 -0.29417 0.273958 0.405238 
478 1 -0.141 -0.491371 -0.368411 0.630122 
277 1 -0.325695 -0.131787 0.112014 0.368771 
334 1 0.186114 -0.0489599 -0.0243734 0.193984 
3548 2 -0.787081 0.781552 -0.630807 1.27602 
3392 1 0.158333 -0.0728316 -0.196165 0.262401 
421 1 -0.665677 0.0545076 0.51618 0.84412 
3389 1 -0.281823 0.182021 0.0436417 0.33832 
362 1 -0.370078 0.0768031 0.113226 0.394559 
2696 1 -0.0923401 -0.530598 -0.307255 0.620054 
3612 2 -0.14951 -0.0673678 -0.000279026 0.163987 
265 1 -0.00847026 -0.0413663 -0.0211159 0.0472101 
780 1 -0.389073 0.122548 0.0188313 0.408351 
2710 1 -0.26128 0.144502 0.0455185 0.302027 
3313 1 0.0818596 0.0808539 -0.222176 0.250201 
3333 1 -0.056727 0.0359558 -0.482439 0.487091 
3808 2 0.219388 0.134977 -0.24117 0.352864 
3281 1 -0.0896904 -0.157348 0.0751927 0.196104 
3573 2 -0.316705 0.355125 -0.484533 0.679108 
3588 2 -0.485266 -0.781365 -0.400389 1.00316 
221 1 -0.0709128 0.217517 0.205901 0.307795 
3679 2 -0.537378 -1.0213 0.994013 1.52312 
3249 1 -0.276737 0.540664 -0.0810001 0.612749 
903 1 0.0732377 -0.611129 -0.192878 0.645015 
2873 1 0.42568 -0.436843 0.436616 0.750113 
951 1 0.310389 -0.0899071 -0.378747 0.49787 
3434 1 -0.248549 0.0202907 0.261096 0.361053 
966 1 -0.074869 0.126826 0.00861605 0.147528 
3350 1 -0.0981638 1.25267 1.10177 1.67114 
2861 1 -1.2644 0.890856 -1.01003 1.8473 
3162 1 -0.0339311 0.18576 0.130765 0.22969 
462 1 -0.0626522 0.0912606 0.237998 0.262482 
2966 1 0.226192 0.136877 0.0471282 0.26855 
3022 1 -0.0462189 0.0957009 -0.0432337 0.114735 
750 1 0.0345255 0.0477524 -0.0477124 0.0758207 
3647 2 -0.930441 -0.355139 -0.445104 1.09085 
100 1 0.0490148 0.0337459 0.0984698 0.115054 
3676 2 0.262586 0.187749 0.187673 0.373393 
838 1 0.0304993 0.378229 0.0483995 0.382531 
886 1 -0.143715 -0.0156602 0.144588 0.204463 
449 1 0.217 0.0502552 0.0149258 0.223243 
3883 2 -0.702235 -0.915771 0.556603 1.28124 
2890 1 -0.0910161 0.0536039 -0.275203 0.294778 
1285 1 0.0292669 0.573948 0.517072 0.773069 
3209 1 0.223808 0.214503 0.300775 0.431934 
943 1 -0.514164 0.15218 0.163534 0.560595 
4318 2 -0.53791 -0.0629853 0.359227 0.649891 
3409 1 0.0293772 -0.22043 0.0059268 0.222458 
4123 2 -0.103596 -0.172694 -0.159132 0.256668 
1145 1 -0.809729 -0.425059 -0.0303894 0.915019 
3227 1 -0.126156 -0.198636 0.047454 0.240049 
373 1 -0.266736 0.234427 -0.138182 0.381049 
4297 2 0.149876 -0.534273 -0.317663 0.639391 
482 1 -0.288238 0.0771387 -0.506258 0.587646 
3404 1 0.101864 -0.120756 0.0692259 0.172483 
3531 2 -0.133748 0.101324 0.18398 0.249006 
974 1 -0.897005 -0.134726 0.262119 0.944179 
3013 1 0.632476 0.224286 -0.494366 0.833504 
309 1 -0.136256 0.18445 -0.0119612 0.229631 
836 1 -0.0195873 -0.0934372 -0.101268 0.139174 
398 1 -0.526601 0.103947 -0.0744392 0.541899 
4146 2 -0.998829 0.421933 0.161861 1.09631 
3221 1 -0.581819 0.230987 -0.337221 0.711046 
412 1 -0.143533 0.545597 0.0614164 0.567494 
394 1 -0.0855935 0.0607511 0.0365779 0.111153 
3916 2 -1.04001 -1.69762 -0.066518 1.99197 
306 1 0.0686198 0.288379 -0.394664 0.49359 
228 1 -0.107466 -0.812493 0.00121109 0.81957 
2365 1 0.0520155 0.0890177 -0.167594 0.196768 
3546 2 -0.626444 -0.572802 -0.724328 1.11588 
3319 1 0.326468 -0.147765 0.193791 0.407395 
3360 1 -0.0519528 0.331527 0.305017 0.45348 
3093 1 -0.455667 0.0897125 -0.305148 0.555694 
3324 1 0.10404 -0.350682 -0.00803415 0.365878 
2745 1 -0.0789822 0.0553686 -0.183431 0.207246 
4116 2 -0.195539 -0.189809 0.691343 0.743114 
3658 2 0.023278 0.178565 0.197349 0.267159 
1449 1 0.0437915 0.131682 0.152695 0.206334 
3379 1 -0.192249 -0.585425 0.548067 0.824657 
3483 2 -0.0920015 -0.199591 -0.360344 0.422077 
3150 1 0.64442 1.66811 -1.65585 2.43715 
2959 1 0.838324 -0.254135 -0.0173926 0.87617 
3337 1 0.0997906 -0.748164 -0.0737655 0.758386 
2838 1 -0.0265381 -0.478633 0.0995229 0.48959 
4109 2 -0.416291 -0.401234 -0.0274694 0.578827 
3535 2 0.0636546 0.130313 -0.040023 0.15045 
389 1 0.149603 -0.142978 -0.113827 0.236179 
3094 1 0.0108963 -0.00860484 -0.0708318 0.0721798 
601 1 0.119788 0.240398 -0.0314273 0.270422 
4239 2 1.05045 1.58639 -0.656744 2.0128 
3617 2 0.170822 -0.00612044 -0.0609898 0.181487 
206 1 0.137032 0.140974 0.0927672 0.217387 
71 1 0.210122 -0.0244259 -0.0619659 0.220426 
716 1 0.172681 0.180389 -0.0437636 0.253524 
3561 2 0.0174346 -0.0300473 0.13582 0.140192 
4185 2 0.105709 -0.117214 -0.128182 0.203333 
614 1 -0.209399 0.0712653 0.340753 0.40625 
3678 2 -0.384473 -0.135075 0.31515 0.515155 
3097 1 -0.124245 0.128279 -0.0437834 0.183873 
1313 1 0.106367 -0.0244411 -0.0417656 0.116857 
444 1 -0.274002 0.23286 -0.5016 0.617174 
388 1 -0.316778 0.63766 0.505757 0.873355 
3668 2 -0.344031 0.0454616 0.0128786 0.34726 
460 1 0.211551 0.0568588 0.100635 0.241069 
499 1 -0.123189 0.280719 0.0220201 0.307349 
4257 2 1.57402 0.569206 -0.39291 1.71928 
3524 2 -1.93542 -0.667651 -0.273197 2.06549 
94 1 -0.0895772 0.464328 -0.0235552 0.473476 
291 1 -0.0846269 0.277945 -0.0746668 0.299984 
1314 1 -0.133103 0.395433 0.0268796 0.418098 
375 1 -0.0150739 0.177796 -0.256753 0.312667 
3672 2 -0.0826585 0.323459 -0.151781 0.366736 
37 1 -0.0407031 -0.192264 0.0552057 0.204132 
392 1 -0.0903166 0.16718 -0.105017 0.217105 
3233 1 -0.14775 -0.35216 -0.169876 0.417977 
4309 2 -0.270658 0.091303 -0.175397 0.335196 
1212 1 -0.330298 0.238131 -0.0728057 0.413647 
901 1 -0.0725146 -0.152131 0.0394912 0.173095 
436 1 0.0520182 0.223605 -0.054211 0.23589 
3293 1 -0.0415644 0.174384 0.243446 0.30233 
792 1 -0.102607 -0.171816 0.0488812 0.206005 
382 1 0.680792 0.258865 -1.26257 1.45759 
3095 1 0.304297 0.0395107 -0.711359 0.774719 
490 1 0.547256 -0.122206 -0.816069 0.990148 
318 1 -0.47711 1.10218 -0.958928 1.53687 
3180 1 -0.44033 -0.408388 -0.0265551 0.601146 
3314 1 -1.12382 0.0694216 -0.169191 1.1386 
92 1 -0.426144 -0.430691 -0.374216 0.712131 
2479 1 -0.241003 0.034182 -0.570933 0.620657 
4197 2 1.46396 0.150469 0.436453 1.53503 
2737 1 0.042024 -0.0740406 0.539445 0.546121 
4284 2 -0.196895 0.558924 0.597856 0.841781 
160 1 0.455827 -0.0153999 0.318597 0.556345 
3242 1 -0.245681 0.45188 -0.0633292 0.518232 
3305 1 0.177283 -0.0798591 -0.11852 0.227714 
353 1 -0.0233119 0.0599854 -0.0744829 0.0984347 
2732 1 -0.0394074 -0.194648 0.0497947 0.204744 
357 1 -0.849358 0.785295 -0.434683 1.23574 
3526 2 0.423099 0.122182 -0.340169 0.556467 
2771 1 0.504408 0.00711052 0.457582 0.681072 
411 1 0.104493 0.152506 -0.500068 0.533146 
4271 2 0.0465346 0.0995074 0.0555173 0.123083 
1172 1 -0.0109936 -0.078119 0.0498228 0.0933046 
652 1 0.124754 -0.0448483 -0.119714 0.178623 
3568 2 -0.0405486 0.0718049 -0.0479426 0.0953867 
3433 1 -0.0462401 0.018602 -0.0781623 0.0927013 
3560 2 -0.00596234 0.0610627 0.0404691 0.0734979 
3419 1 -0.138599 -0.0458981 -0.0124222 0.146529 
248 1 0.0031277 0.0811352 0.187158 0.204012 
1409 1 0.345836 0.197695 -0.476386 0.620991 
3312 1 -0.0624162 0.0319337 0.0542587 0.0886541 
325 1 -0.00389003 -0.0727276 -0.0930354 0.118153 
292 1 0.0944895 0.0434658 0.141221 0.175388 
3444 1 0.0566008 -0.111717 -0.0198455 0.1268 
3504 2 0.0922245 -0.153266 0.0387418 0.183021 
908 1 0.220515 -0.300525 -0.174684 0.411651 
423 1 0.139372 -0.0580528 0.0332101 0.154588 
502 1 0.0046175 -0.0640432 -0.125303 0.140797 
4182 2 -0.146599 -0.264695 -0.0173426 0.303077 
874 1 -0.108259 -0.224421 -0.00759387 0.249284 
980 1 -0.1357 -0.181956 0.314505 0.387861 
225 1 -0.356756 -0.374364 -0.0435242 0.518958 
914 1 -0.191533 -0.06198 0.0247931 0.202832 
810 1 -0.0947917 0.0707607 0.0694998 0.137196 
3331 1 -0.158843 -0.00878587 0.113025 0.195148 
3266 1 0.521875 0.194274 -0.220042 0.598761 
1254 1 -0.0408526 -0.054864 0.0390259 0.0787529 
3799 2 -0.109635 -0.168937 -0.253674 0.323898 
416 1 -0.0115119 -0.151373 0.263822 0.304382 
365 1 -0.0198396 -0.0552593 0.0390908 0.0705357 
2819 1 -0.115343 -0.161748 0.095566 0.220453 
4280 2 0.268496 -0.0697464 -0.239165 0.366271 
3070 1 0.776885 -0.523789 -1.1742 1.50221 
295 1 -0.0542667 -0.106951 -0.240599 0.268834 
2776 1 0.00665147 -0.0593725 0.0788607 0.0989361 
647 1 0.277965 0.333539 -0.167511 0.465374 
497 1 -0.294691 -0.33916 0.355488 0.572926 
349 1 -0.0532259 0.220672 0.179181 0.289198 
957 1 0.55498 -0.245572 -0.295059 0.67481 
474 1 0.0266857 -0.0373199 -1.04498 1.04598 
964 1 -0.107767 -0.582291 -1.62094 1.72573 
2973 1 0.36065 0.257275 -0.304484 0.537559 
3378 1 0.130492 -0.0241179 0.0179696 0.133913 
783 1 -0.204273 0.0814267 0.0680703 0.230199 
2993 1 -0.383378 -0.0013534 -0.0271258 0.384339 
471 1 -0.35347 -0.0226614 0.0717034 0.361381 
4256 2 -0.552494 -0.111241 -0.0938591 0.571344 
4285 2 0.00585331 -0.213201 -0.0278914 0.215098 
279 1 0.587383 0.36746 0.110289 0.701576 
107 1 -0.140295 0.0391703 0.160158 0.216489 
825 1 -0.215784 -0.709865 -0.193255 0.766693 
406 1 -0.807554 -0.286431 -0.272502 0.899135 
1354 1 0.0888583 -0.345624 0.223866 0.421269 
917 1 -0.0619115 -0.0780073 0.0412737 0.107804 
274 1 -0.104285 -0.199656 -0.0910996 0.242975 
1091 1 -0.295142 0.0296317 0.251728 0.389042 
3396 1 -0.0777806 -0.174287 0.0777988 0.206103 
3863 2 -0.292439 0.0324431 0.21512 0.364486 
3322 1 -0.0384735 0.114068 -0.0118792 0.120967 
4028 2 -0.236306 0.0146085 0.156498 0.283806 
329 1 -0.252025 0.114509 -0.126066 0.304174 
3420 1 0.2017 -0.261202 -0.396249 0.515677 
3435 1 -0.0781266 -0.037396 -0.128219 0.154733 
2545 1 -0.0630217 -0.0140739 0.00654498 0.0649049 
3674 2 0.376221 0.246635 -0.115156 0.464361 
3327 1 0.0504789 -0.217228 0.0326753 0.225397 
1418 1 0.00423016 -0.0626851 0.236192 0.244405 
443 1 -0.030267 0.0240661 0.204926 0.208543 
855 1 0.155258 0.00153608 -0.271669 0.312908 
3380 1 0.332848 0.133447 0.213024 0.417104 
3476 2 0.298683 -0.454971 -0.139065 0.561738 
2869 1 -0.145688 0.122935 -0.0485357 0.196707 
177 1 -0.165906 0.0928818 -0.138475 0.235217 
4307 2 -0.224028 0.0714818 0.0441545 0.239265 
363 1 0.0455482 -0.221124 -0.0400346 0.229289 
1450 1 -0.15137 0.166421 -0.024901 0.226338 
3559 2 -0.00259203 0.116866 0.130934 0.175522 
319 1 -0.243397 0.0573235 -0.143348 0.288231 
347 1 -0.176832 -0.0456856 -0.037644 0.186478 
4237 2 0.514377 0.2688 -0.0848582 0.586547 
875 1 -0.105053 -0.0344146 0.0636381 0.127555 
268 1 -0.0339015 0.0527691 0.129035 0.143471 
830 1 -0.0817375 0.231953 -0.0345582 0.248349 
937 1 -0.11314 0.0966559 0.0470437 0.156065 
442 1 -0.100964 -0.0369279 -0.249752 0.271907 
854 1 0.0060198 0.441549 -0.0157971 0.441872 
1442 1 -0.221235 -0.109173 0.0327941 0.248875 
1337 1 0.0286193 -0.532344 0.132203 0.549261 
3643 2 0.170755 -0.211043 -0.641497 0.696573 
314 1 0.118695 0.0748491 0.223515 0.263913 
3291 1 0.213147 -0.0992606 0.0122512 0.235445 
3397 1 0.0149544 -0.0172472 -0.334726 0.335503 
486 1 0.628791 0.0787865 -1.10872 1.27704 
793 1 0.660004 0.00324777 -0.139121 0.674515 
757 1 0.0663911 -0.123024 0.0392098 0.14519 
4163 2 -0.524237 -0.597716 0.665747 1.03697 
3544 2 0.0613911 -0.812025 -1.39534 1.61559 
3219 1 0.570549 -0.648446 -0.560573 1.02969 
3278 1 0.146748 0.0998753 0.173621 0.248303 
404 1 -0.0983772 -0.0873047 -0.194723 0.234983 
822 1 -0.209617 -0.319985 0.0248701 0.383338 
419 1 0.875656 -0.0988175 -0.094735 0.886292 
1430 1 -0.108298 -0.172994 0.0257915 0.20572 
3200 1 -0.0736625 0.621117 -0.160998 0.645858 
187 1 -0.330377 -0.0419196 0.407594 0.526345 
85 1 0.0721909 -0.0667615 0.29697 0.312825 
1304 1 0.151868 -0.115395 0.0240225 0.192242 
3240 1 -0.361999 -0.0552629 0.242157 0.439018 
113 1 -0.0411317 0.0971917 0.0420921 0.113621 
504 1 -0.199672 -0.149372 0.467827 0.530135 
2795 1 -0.320967 -0.0405019 0.106739 0.340667 
968 1 -0.109139 0.0747466 0.171504 0.216591 
496 1 -0.456423 0.206823 0.513332 0.717361 
439 1 -0.252121 0.145313 -0.0312579 0.292674 
654 1 -0.256595 -0.307243 0.0287651 0.401331 
581 1 -0.195881 -0.0439532 0.352196 0.405393 
367 1 0.030015 -0.32312 0.136426 0.352022 
3541 2 -0.726205 0.306646 -0.212217 0.816359 
786 1 -0.324778 0.0218803 0.141521 0.354947 
393 1 -0.67804 0.000657747 -0.78102 1.03428 
3545 2 -0.163594 0.183226 -0.250298 0.350691 
3482 2 -0.240611 -0.256526 -0.199748 0.404473 
402 1 0.23875 0.363073 -0.0935589 0.444497 
800 1 -0.243233 0.312908 -0.255278 0.471424 
2687 1 -0.418884 0.0280801 -0.125527 0.438188 
31 1 -0.1456 -0.0528774 -0.302336 0.33971 
440 1 -0.17593 -0.032216 0.0657278 0.19055 
2814 1 -0.419866 0.245265 -0.123537 0.501701 
1723 1 -0.744562 0.324432 0.345893 0.882763 
4154 2 -1.26201 0.660951 -0.705469 1.58972 
819 1 -0.0375895 -0.301893 0.0726225 0.312772 
501 1 0.0517315 -0.0513378 0.266145 0.275943 
840 1 -0.306817 0.116237 0.0151029 0.328444 
2656 1 -0.00562189 -0.0150623 0.0293539 0.0334684 
801 1 -0.310829 -0.0414663 0.126588 0.33817 
431 1 -0.302317 0.568551 -0.0728367 0.648037 
461 1 -0.10551 0.040688 0.327903 0.346854 
899 1 0.0582862 -0.103306 0.0713975 0.138445 
3192 1 0.308311 0.18467 -0.503291 0.618434 
4152 2 -0.83263 0.200634 -0.68793 1.09853 
3436 1 -0.140399 -0.345595 -0.106137 0.387831 
2884 1 0.174467 -0.138438 -0.288315 0.36432 
3371 1 -0.0969599 -0.179262 -0.22299 0.302093 
3339 1 -0.186645 0.70875 -0.616588 0.957781 
781 1 0.221068 -0.0164358 -0.25901 0.340921 
4143 2 0.843361 -1.07441 0.010195 1.36592 
307 1 -0.155381 0.0904782 -0.198412 0.267762 
3961 2 0.927184 -2.12148 -0.302914 2.33498 
4098 2 -0.0109167 -0.0446208 0.229147 0.233706 
1289 1 0.0531244 0.106588 -0.0360405 0.124427 
3082 1 0.0651177 -0.090142 0.180207 0.211756 
308 1 -0.430064 -0.191902 -0.209343 0.51537 
1252 1 0.717509 -0.402886 -0.117403 0.831215 
3383 1 -0.0213386 -0.0961721 -0.0646198 0.117814 
4298 2 -0.145512 -0.204844 0.444787 0.510852 
863 1 0.0432768 -0.214939 -0.544307 0.586806 
4264 2 0.314734 0.0322423 0.138842 0.345505 
699 1 -0.0211146 0.0279481 0.235626 0.238216 
3487 2 0.0601473 0.0855255 0.280187 0.299061 
128 1 0.00712524 0.0848278 0.1046 0.134861 
907 1 0.0516554 -0.03066 -0.24515 0.252402 
1641 1 0.03527 0.112837 -0.289121 0.312358 
1544 1 0.0330708 0.0798927 -0.124991 0.151984 
158 1 0.0147724 0.0797694 -0.0627231 0.102545 
1535 1 0.040268 -0.0537962 0.234023 0.24348 
573 1 -0.0859797 0.197653 0.0827538 0.230884 
3844 2 0.105611 -0.0665466 0.125477 0.176993 
631 1 0.0964933 0.147265 0.0226888 0.177518 
3600 2 0.192196 0.25474 -0.0969637 0.333517 
975 1 0.0585451 0.013006 0.0820915 0.101665 
1612 1 0.0300328 0.198291 0.102157 0.225072 
3173 1 0.0150545 0.150885 0.188623 0.242016 
683 1 0.0257426 -0.235695 0.0924811 0.254494 
1474 1 -0.0134488 0.0353405 0.184724 0.188554 
63 1 -0.108622 0.0546753 -0.203027 0.23666 
1569 1 0.258509 0.21007 -0.189558 0.383261 
577 1 0.0229023 0.143754 0.167053 0.221577 
565 1 -0.0439805 -0.0748464 0.0296772 0.0917443 
3418 1 0.442874 0.556937 0.178234 0.733542 
4176 2 0.0360729 0.109172 -0.032162 0.119391 
3616 2 -0.304236 0.000227769 0.833075 0.88689 
2057 1 0.100565 0.0390535 0.181321 0.210987 
69 1 0.147934 0.211451 0.229988 0.345674 
166 1 -0.0265594 -0.0391404 0.385765 0.388654 
655 1 -0.310595 -0.231131 -0.185681 0.429381 
4319 2 0.103834 -0.161183 0.111862 0.221979 
172 1 -0.0499169 0.150516 0.180365 0.240163 
1053 1 0.0084108 -0.324793 -0.106679 0.341967 
621 1 -0.0735678 0.169538 -0.126705 0.224075 
3615 2 -0.154458 -0.479506 0.408756 0.648741 
657 1 -0.0402727 0.390195 0.200398 0.440493 
555 1 0.436896 0.470826 -0.21632 0.677753 
740 1 0.0938686 0.116558 0.508346 0.529918 
3572 2 0.246212 0.510994 0.597099 0.823567 
617 1 0.346588 0.385575 -0.581229 0.778857 
1083 1 0.222134 -0.168324 -0.200124 0.343112 
401 1 -0.202742 0.0613428 0.357598 0.415624 
885 1 0.0312321 -0.0906452 -0.122862 0.155843 