ITEM: TIMESTEP
68000
ITEM: NUMBER OF ATOMS
4320
ITEM: BOX BOUNDS pp pp pp
0.0000000000000000e+00 1.9309999999999999e+01
0.0000000000000000e+00 1.9309999999999999e+01
0.0000000000000000e+00 9.6549999999999994e+00
ITEM: ATOMS id type c_displacement[1] c_displacement[2] c_displacement[3] c_displacement[4] 
381 1 -0.108214 -0.0720062 0.0856982 0.15569 
303 1 0.0905268 -0.300688 -0.732131 0.796633 
2478 1 0.345662 -0.307827 0.408392 0.617271 
327 1 -0.0186591 -0.0454486 0.0307382 0.0579532 
817 1 0.136318 -0.0800246 0.139859 0.211062 
728 1 -0.0146213 -0.0596044 0.0611138 0.0866104 
3189 1 -0.22091 0.266997 -0.50075 0.608966 
3916 2 -0.370134 -0.287007 0.0254356 0.469062 
4053 2 0.185273 0.0364626 -0.540146 0.572201 
2945 1 0.0895412 0.247487 -0.0453379 0.267064 
3230 1 0.204254 -0.0320742 -0.00915162 0.206959 
3651 2 0.726347 -0.167077 -0.40164 0.846646 
400 1 -0.108717 0.220265 -0.0860867 0.260283 
677 1 0.0250374 -0.0716517 0.132049 0.152308 
623 1 -0.00350663 -0.0548484 0.0231705 0.0596449 
727 1 -0.177468 -0.193161 0.271353 0.377411 
2939 1 0.028466 -0.145058 0.204138 0.252041 
96 1 0.0805773 -0.311292 -0.0435766 0.324491 
87 1 0.273179 0.525222 -0.0902378 0.598855 
3514 2 0.302243 -0.102843 0.49388 0.588086 
688 1 0.440684 -0.121082 0.167509 0.486747 
58 1 0.301531 0.0764562 -0.473458 0.566506 
18 1 0.444872 0.505689 -0.110168 0.682473 
110 1 0.025234 -0.384723 0.0204621 0.386093 
215 1 -0.0033567 -0.0112796 0.0954628 0.0961855 
3712 2 0.0617591 0.106706 -0.0656346 0.139672 
821 1 -0.568681 0.0789366 -0.249066 0.62583 
190 1 -0.231762 0.0804797 -0.174403 0.301009 
106 1 -0.105718 -0.159726 0.0833535 0.208893 
217 1 0.0991419 -0.0627175 0.0497791 0.127438 
775 1 0.209049 -0.0704969 -0.0659825 0.230271 
608 1 0.044051 -0.183582 0.215141 0.286232 
180 1 0.055788 -0.281714 0.0738497 0.296528 
3627 2 0.0703643 0.00412505 -0.132091 0.14972 
559 1 0.0252931 -0.0300674 -0.0385968 0.0550772 
3460 2 0.0950734 -0.0273409 -0.0843383 0.129998 
3118 1 -0.00222833 -0.0433953 -0.0496137 0.0659518 
562 1 -0.0477888 -0.0829905 -0.0271162 0.0995313 
70 1 0.0612615 -0.0200053 -0.0856121 0.107157 
1118 1 0.0684311 -0.0458235 0.158732 0.178825 
121 1 -0.0433506 0.0348403 -0.124265 0.136143 
4214 2 0.127518 -0.00226246 0.022095 0.129437 
226 1 0.197524 0.0531801 0.0972124 0.226482 
232 1 -0.0893794 0.0311115 -0.00114477 0.0946462 
2936 1 0.107112 0.0690009 -0.0590968 0.140451 
210 1 0.154374 -0.0674511 0.119445 0.206515 
4289 2 0.020594 0.12901 0.00252134 0.130668 
532 1 -0.0844731 0.0328444 0.106085 0.13953 
3578 2 0.161723 0.0636699 0.285088 0.333891 
473 1 0.0622847 -0.190875 0.0170381 0.201502 
246 1 0.105428 -0.0164931 0.0363837 0.112742 
3618 2 0.391078 0.256234 0.00699436 0.467597 
484 1 0.261559 0.421245 0.489578 0.696812 
4071 2 -0.0155728 -0.0387381 0.166961 0.172102 
2838 1 -0.0409134 0.0958307 0.00626851 0.104387 
894 1 -0.110092 0.0126334 -0.0535715 0.123085 
351 1 -0.083568 -0.0104263 -0.0463778 0.0961416 
3135 1 -0.0993811 0.404342 -0.237975 0.479585 
289 1 -0.0346143 -0.14853 0.10347 0.184296 
536 1 -0.0297747 0.0734048 0.109479 0.135131 
594 1 0.116755 0.0748487 -0.0120982 0.139214 
4257 2 1.11517 0.805102 -0.189217 1.38838 
1415 1 -0.29459 -0.164486 0.21606 0.400651 
527 1 -0.206423 -0.213894 -0.122676 0.321576 
3002 1 -0.140421 0.129023 -0.0958408 0.213425 
712 1 0.103168 -0.297001 0.0215233 0.315145 
59 1 0.114091 0.0305583 0.0488038 0.127798 
197 1 -0.0915914 0.85374 0.0189441 0.858848 
1454 1 -0.105396 0.0426223 -0.0253744 0.116486 
4177 2 0.422294 -0.612787 0.50758 0.90082 
93 1 -0.0127357 0.147813 -0.0712925 0.164601 
569 1 0.220704 0.0501279 0.278443 0.358822 
639 1 -0.153818 0.145055 -0.0507421 0.217429 
21 1 -0.163158 -0.088874 -0.0419081 0.190461 
3353 1 0.130276 -0.326556 0.00169329 0.351587 
167 1 -0.116731 0.146972 -0.00171657 0.187696 
725 1 -0.0720276 0.005807 -0.0477988 0.0866397 
823 1 0.0217896 -0.0375883 -0.0887666 0.098829 
28 1 -0.175782 0.157116 -0.063088 0.244059 
2596 1 -0.0936851 -0.0315737 0.0345236 0.104717 
50 1 -0.0651854 -0.189826 -0.0272778 0.202552 
2495 1 -0.0249025 0.155424 -0.0369669 0.161689 
3055 1 0.0203721 -0.115705 -0.228598 0.257021 
12 1 0.205497 0.149355 -0.21258 0.331249 
738 1 0.111902 -0.31351 0.0410105 0.335399 
65 1 0.00118582 -0.0969249 0.173697 0.198913 
4170 2 -0.0186494 -0.172482 0.262976 0.315046 
2453 1 0.211116 -0.00242405 0.146865 0.257187 
3167 1 0.104701 -0.0741454 -0.0358407 0.133208 
339 1 0.187271 0.164326 0.0663565 0.257831 
390 1 0.146132 -0.0982589 0.0900878 0.197801 
118 1 0.212558 0.0587347 0.054832 0.227238 
3582 2 0.0509473 0.163381 -0.0469745 0.17747 
3632 2 0.070738 0.0323255 -0.0578011 0.0969008 
231 1 0.160704 -0.0680429 0.198886 0.264596 
323 1 0.0471514 0.157941 0.0681605 0.178366 
3244 1 0.02032 0.0126751 0.042921 0.0491505 
203 1 -0.101636 0.0915705 -0.057362 0.148343 
3808 2 0.0122117 -0.0410723 0.0719722 0.0837619 
2768 1 0.195405 -0.0481857 -0.0300193 0.203485 
3346 1 -0.0545741 0.185933 0.0285865 0.195874 
3611 2 -0.114728 0.129843 0.074596 0.188643 
553 1 -0.429124 0.796956 -0.251561 0.939451 
2960 1 -0.108256 -0.022805 0.0201259 0.112448 
29 1 -0.0785122 0.337282 -0.00832995 0.3464 
753 1 0.0434944 -0.361593 0.0307543 0.365496 
2735 1 -0.198784 0.12414 -0.11424 0.260723 
3251 1 -0.209761 0.0345137 -0.301712 0.369081 
718 1 0.0705811 0.0327376 0.31597 0.325408 
3467 2 -0.646972 0.824056 -0.0307033 1.04813 
4228 2 0.0595737 0.072025 -0.300592 0.31479 
53 1 0.322618 0.115788 -0.331228 0.476656 
437 1 0.179712 0.0821723 -0.181239 0.268135 
593 1 -0.323302 0.139667 0.117688 0.371324 
609 1 0.277034 -0.0208833 -0.362339 0.456589 
3040 1 -0.301115 0.00132404 -0.196598 0.359615 
610 1 0.0261692 -0.00750289 0.0871963 0.0913472 
89 1 -0.0804092 -0.071067 -0.0700988 0.12818 
3149 1 -0.018929 0.0471393 -0.0789152 0.0938512 
550 1 -0.051304 -0.509159 0.33339 0.610757 
147 1 0.13175 -0.098745 -0.0363833 0.168619 
3554 2 0.341693 -0.417631 -0.0296561 0.540416 
3478 2 0.0538242 0.139602 0.160816 0.219654 
424 1 0.101428 0.114014 -0.0829374 0.173682 
3786 2 0.144777 0.02643 -0.179567 0.232171 
5 1 0.137545 0.0691888 -0.0251238 0.156003 
2591 1 0.254587 0.0410245 -0.106134 0.278858 
3232 1 0.0305808 0.236199 0.235108 0.334666 
1215 1 0.0613846 -0.282144 -0.0779144 0.299072 
859 1 0.126792 0.0356843 -0.0425306 0.138414 
3152 1 0.231545 -0.02352 0.0547652 0.239093 
3006 1 0.137818 0.047574 0.0418245 0.151678 
988 1 0.0184788 0.041681 -0.121485 0.129759 
23 1 0.0365771 -0.0466241 -0.218349 0.226248 
43 1 0.18033 0.0328321 0.0326754 0.186184 
3023 1 -0.00141106 0.46607 -0.159255 0.49253 
151 1 0.117346 -0.00437269 0.089796 0.147826 
3730 2 0.0331645 -0.0964238 -0.155105 0.185621 
3743 2 0.00982169 0.192411 0.0429718 0.197396 
2461 1 -0.086702 0.144011 -0.0465405 0.17442 
3199 1 0.0241029 0.111905 0.00942659 0.114858 
7 1 0.0198508 -0.291333 0.050196 0.296291 
3469 2 -0.539146 -0.00581881 -0.448048 0.701041 
4034 2 0.129671 0.368733 0.406834 0.564174 
3679 2 -1.256 0.0350065 0.070714 1.25848 
4187 2 0.0876637 -0.209393 -0.596503 0.638237 
3623 2 0.235199 0.117841 -0.0664212 0.271324 
255 1 0.00507176 0.0149983 -0.174099 0.174817 
2961 1 -0.416161 0.42229 0.140788 0.609377 
3393 1 -0.125029 -0.157518 0.0825874 0.217405 
737 1 0.170974 -0.121133 -0.521004 0.561561 
949 1 -0.111453 0.043472 -0.100437 0.156203 
3188 1 0.044602 0.365191 0.0540684 0.371857 
529 1 -0.24336 -0.242416 -0.13329 0.368451 
140 1 -0.199856 -0.147325 0.157613 0.29409 
691 1 -0.00344619 -0.412943 0.14522 0.437748 
216 1 0.398411 -0.10069 0.013756 0.411168 
2500 1 0.123963 -0.198716 0.151779 0.279091 
3196 1 -0.131515 -0.453407 -0.771956 0.90487 
825 1 -0.0841983 -0.0960019 0.131045 0.182971 
237 1 0.00203042 0.110493 -0.24878 0.272221 
3491 2 -0.25335 0.519711 -0.478985 0.750808 
1480 1 -0.380259 -0.320725 0.226644 0.546653 
2968 1 0.273981 -0.0858424 0.0255815 0.288252 
1331 1 -0.136382 -0.0917613 0.107526 0.196423 
133 1 0.15562 -0.0941786 -0.14433 0.232203 
98 1 0.189334 -0.173669 -0.0603131 0.263905 
2934 1 0.0206814 0.246388 -0.126492 0.277732 
1130 1 -0.163599 -0.0899421 0.0760455 0.201587 
40 1 -0.0399476 0.121091 0.0594608 0.140693 
3041 1 -0.0472924 -0.210014 -0.268602 0.344222 
604 1 0.34373 0.0904166 -0.266872 0.444461 
721 1 0.150568 0.0206224 -0.337482 0.370122 
4094 2 0.640756 -0.35581 -0.729135 1.03383 
3164 1 0.22321 -0.003482 -0.2068 0.304304 
241 1 -0.0308319 -0.00565354 -0.0648882 0.0720628 
78 1 0.00897399 0.187453 0.0902898 0.208258 
3211 1 0.359742 -0.00447018 0.18892 0.406356 
64 1 0.0584944 0.0705844 -0.211601 0.230605 
257 1 0.0627285 0.0198456 -0.0463178 0.0804615 
193 1 -0.00568128 0.083414 -0.129059 0.153774 
2996 1 0.177351 -0.0264392 -0.0952204 0.203025 
4212 2 0.00964973 -0.0370031 -0.088293 0.0962185 
44 1 0.130815 -0.0873415 -0.161529 0.225461 
3279 1 -0.0324594 -0.0829671 0.0444784 0.0995765 
178 1 0.0974571 0.108041 -0.145584 0.205829 
3408 1 -0.0685239 -0.0254315 0.00133864 0.0731032 
330 1 -0.0863466 0.361126 0.146084 0.399009 
600 1 -0.313415 0.13405 -0.0527994 0.344944 
338 1 -0.155292 -0.202659 -0.102416 0.275092 
4101 2 -0.115556 0.060449 0.132 0.185557 
3841 2 -0.203443 0.13233 -0.0339559 0.245058 
1149 1 0.127005 -0.119408 0.17838 0.249415 
3512 2 0.0633563 -0.0328596 0.0943361 0.118292 
211 1 0.269215 -0.149838 -0.138549 0.337822 
95 1 -0.0804058 -0.0281299 -0.00817681 0.085576 
4217 2 -0.224462 0.0616183 0.221411 0.321252 
3010 1 0.161823 0.0230924 0.0366871 0.167529 
479 1 -0.29882 0.0164435 0.107152 0.317876 
3335 1 -0.185393 0.0384986 0.0489042 0.195561 
1457 1 -0.205199 -0.0114907 -0.0209897 0.20659 
3037 1 -0.0899947 0.16323 -0.0641077 0.197111 
4253 2 -0.0718958 0.230703 -0.139096 0.27882 
387 1 -0.130453 0.100316 -0.0106571 0.164909 
3736 2 -0.101245 0.438023 0.104877 0.461643 
580 1 -0.0104042 -0.047423 0.139438 0.147649 
174 1 0.0672481 -0.0437842 0.155941 0.175377 
717 1 -0.00681438 -0.110149 0.390624 0.405914 
497 1 -0.04317 -0.0271839 0.169804 0.177302 
508 1 0.0778743 -0.1826 0.293695 0.354491 
3130 1 0.233363 -0.0214681 0.14824 0.277298 
3537 2 0.24302 0.0781915 0.109358 0.277727 
747 1 -0.0228724 0.102142 0.264574 0.284527 
958 1 0.00799062 -0.36955 0.300338 0.476271 
1133 1 0.103453 -0.0940512 0.0905849 0.166595 
4204 2 -0.0912335 -0.116261 -0.0371066 0.152372 
86 1 0.379308 0.0775616 -0.0737378 0.394117 
759 1 0.129748 -0.0222952 -0.0595374 0.144486 
3411 1 -0.0290686 0.0978439 0.275107 0.293432 
835 1 -0.243107 0.369612 0.0256256 0.443137 
2977 1 -0.0239767 -0.119551 -0.0938175 0.153848 
704 1 0.104911 0.405501 -0.246207 0.485855 
157 1 0.127539 0.226073 -0.0559579 0.26553 
54 1 -0.108803 0.0195223 -0.317048 0.335766 
493 1 0.167715 0.254737 -0.0798074 0.315259 
3599 2 0.00817646 0.168876 -0.124079 0.209718 
204 1 0.0467095 -0.0511438 -0.182308 0.195022 
254 1 0.055522 0.177416 -0.113756 0.217944 
4050 2 0.0930402 0.289617 -0.10356 0.32134 
2988 1 0.0187909 0.251971 -0.0586384 0.259386 
3030 1 -0.103292 0.141487 -0.0779773 0.19175 
67 1 0.13327 0.0991711 -0.0142439 0.166729 
674 1 0.102149 0.163095 -0.0193654 0.193415 
3479 2 -0.0294498 0.15985 -0.0036016 0.16258 
3216 1 -0.0794097 0.19014 -0.223006 0.303629 
1036 1 0.0653861 0.068657 -0.0887362 0.129859 
234 1 -0.052723 0.00939479 0.0196952 0.0570603 
3369 1 -0.0733623 0.0606572 0.0177953 0.09684 
3607 2 -0.0577416 0.235988 -0.115039 0.268809 
3139 1 -0.026902 -0.00669385 0.129684 0.132614 
644 1 -0.271995 -0.0315241 -0.0337211 0.275885 
1278 1 0.0850456 0.19007 -0.11185 0.236368 
4269 2 -0.0756083 0.220619 0.182983 0.296432 
249 1 -0.115915 0.0413621 0.34321 0.364609 
4089 2 0.0711618 0.166088 0.0345574 0.183966 
214 1 -0.0603888 0.0867726 -0.00578263 0.105876 
640 1 -0.204558 -0.0256862 0.158908 0.260299 
199 1 -0.101509 0.0209463 -0.125712 0.162931 
245 1 -0.0276995 -0.000792971 0.0820161 0.0865709 
2758 1 -0.224285 0.115306 0.130241 0.283834 
3056 1 -0.21614 -0.0388714 -0.027878 0.22137 
3468 2 -0.159694 0.0238157 -0.11052 0.195663 
563 1 -0.136172 0.166713 -0.139817 0.25668 
3464 2 -1.06958 -1.25145 -0.274998 1.66906 
2931 1 -0.0310826 -0.0433703 0.201093 0.208051 
3518 2 -0.205465 0.123781 -0.177126 0.29818 
4163 2 -0.155183 -0.172065 0.277959 0.361869 
2684 1 -0.445907 0.340026 -0.221101 0.602774 
181 1 -0.103335 -0.0730993 0.221704 0.255293 
46 1 -0.101206 -0.341483 0.317228 0.476956 
3603 2 -0.0750306 -0.494046 0.173032 0.52882 
3003 1 -0.0220048 -0.0669623 -0.0062315 0.0707602 
3644 2 -0.00800283 0.0524519 -0.17903 0.186727 
240 1 0.128889 0.329025 -0.269352 0.44432 
3057 1 0.496302 0.140266 -0.0470215 0.517881 
1102 1 0.0884854 0.386085 -0.526865 0.65915 
312 1 0.600804 0.0500264 -0.362556 0.703502 
3007 1 -0.0895937 -0.0268513 0.11686 0.149681 
3701 2 0.135404 -0.000977375 0.0624891 0.149131 
135 1 -0.0912965 -0.109309 -0.058537 0.153981 
66 1 0.168074 -0.0776726 -0.603765 0.631517 
3513 2 0.00950892 -0.218739 -0.50873 0.553844 
587 1 0.006964 -0.0428045 0.11364 0.121634 
134 1 0.166495 0.210302 0.13973 0.302444 
920 1 0.158841 0.0428583 -0.00523855 0.164605 
3620 2 -0.0838378 0.441558 0.176855 0.48299 
685 1 -0.0618325 0.195698 0.15833 0.259209 
191 1 0.142948 0.042846 0.0183895 0.15036 
195 1 0.046463 -0.040512 0.0461516 0.0770066 
2995 1 -0.0200477 -0.259347 -0.0901462 0.275299 
3092 1 0.00966892 0.0778201 0.00251808 0.0784589 
4195 2 0.0441261 -0.0714269 -0.152741 0.174295 
602 1 0.0359294 0.11894 -0.1495 0.194391 
540 1 -0.094957 0.114117 -0.119579 0.190627 
182 1 0.127517 0.166213 -0.164499 0.26636 
6 1 -0.130496 -0.0410037 -0.0420579 0.143106 
2004 1 -0.0853858 -0.0709679 0.0238752 0.113566 
4173 2 -0.0245439 -0.0311682 -0.0407037 0.0568388 
2950 1 0.00650259 -0.105522 0.0173383 0.107134 
427 1 0.0809362 -0.0967292 -0.0874382 0.153469 
690 1 0.135585 -0.0358526 0.0167687 0.141244 
902 1 0.119879 0.177385 -0.0928342 0.233356 
742 1 -0.151785 0.00829823 -0.145773 0.210612 
3115 1 -0.156984 0.029154 0.0602649 0.170663 
2926 1 -0.0104635 -0.189952 0.146379 0.240038 
710 1 0.0361186 -0.0514549 -0.170329 0.181561 
446 1 0.0608158 -0.145753 0.0229467 0.15959 
354 1 0.070884 -0.0506542 -0.00783474 0.0874744 
80 1 -0.316086 0.0189836 0.0352215 0.318608 
3608 2 0.0792037 0.0111964 0.0507019 0.0947062 
1991 1 0.0486265 -0.0833195 0.114797 0.14995 
154 1 0.0661423 -0.107843 0.0763093 0.147743 
233 1 0.0425169 0.0726105 0.246168 0.260151 
103 1 -0.132277 0.161274 -0.129257 0.245385 
205 1 -0.428587 0.0439151 0.143077 0.453967 
694 1 -0.306698 0.0427701 0.14256 0.340905 
861 1 -0.247409 0.0349195 0.211869 0.327596 
3549 2 -0.274815 -0.137431 -0.029659 0.308691 
3401 1 -0.146732 -0.0532628 0.103819 0.187472 
1077 1 -0.1238 0.0368585 0.0144819 0.12998 
10 1 0.349652 -0.819355 -0.648621 1.10196 
3482 2 0.0831142 -0.198586 -0.0940885 0.234941 
2479 1 -0.112431 0.319667 -0.109886 0.356234 
3341 1 -0.222251 0.0845906 0.0646377 0.246433 
512 1 -0.0662252 0.0669594 0.0408199 0.102643 
300 1 -0.098153 0.0611846 0.0470768 0.124875 
393 1 -0.126924 -0.0715969 0.00951959 0.146035 
2740 1 -0.110606 0.109287 0.0821318 0.175849 
763 1 0.0816794 0.150722 0.138531 0.220407 
3197 1 -0.124863 0.0338446 0.100934 0.164085 
286 1 -0.214898 0.0138445 0.00381465 0.215377 
4006 2 -0.142456 0.0453129 0.0563713 0.159764 
277 1 -0.196323 -0.0636884 0.0251907 0.207927 
364 1 -0.149933 0.0618493 0.0148341 0.162866 
1367 1 -0.101729 0.048728 0.00203986 0.112816 
411 1 -0.197601 0.132663 0.262743 0.354513 
635 1 -0.154852 -0.200035 0.0644123 0.261041 
356 1 0.164995 -0.0631392 0.0821462 0.194828 
4154 2 -0.26932 0.258472 0.170894 0.410544 
3389 1 0.051932 0.0101726 0.0180822 0.055923 
966 1 -0.160721 0.0660613 0.239126 0.295595 
362 1 -0.187125 -0.022879 0.0921973 0.209856 
478 1 -0.104404 0.295894 0.135972 0.341968 
2696 1 -0.49388 -0.0831617 -0.70865 0.867766 
309 1 -0.0178855 0.199083 0.0586001 0.208297 
4159 2 -0.139583 0.145795 0.242113 0.315211 
3612 2 -0.185698 0.491503 0.111722 0.53716 
3573 2 -0.326167 -0.0964544 -0.845226 0.911096 
780 1 -0.204126 0.0228664 -0.26496 0.335253 
3150 1 0.340545 1.39108 -1.04069 1.77034 
614 1 -0.0670571 -0.0139991 -0.0647539 0.0942639 
2710 1 -0.0970895 0.164573 -0.246706 0.312048 
3313 1 -0.0318993 -0.0185835 -0.166899 0.170933 
3303 1 0.134133 0.248072 0.128409 0.309871 
2365 1 -0.17728 0.114522 -0.287591 0.356724 
306 1 -0.25336 0.0989788 -0.378673 0.466242 
3290 1 -0.234713 0.0715876 0.0850971 0.259723 
92 1 -0.340634 -0.477733 -0.264433 0.643572 
3097 1 -0.154894 0.0596062 -0.729084 0.747736 
3333 1 -0.100281 0.0318112 -0.204645 0.230103 
3249 1 -0.183998 0.0889845 -0.0787377 0.219027 
3379 1 -0.14584 0.0119404 0.234417 0.276339 
2873 1 0.56783 -0.632779 0.411612 0.944598 
903 1 -0.0300734 -0.616284 -0.104403 0.625788 
3526 2 -0.099624 -0.551428 -0.1654 0.584256 
4014 2 -0.118652 -0.255723 0.220158 0.35769 
160 1 0.186452 0.0485509 0.0335573 0.19557 
626 1 0.0892473 -0.229894 0.16932 0.299142 
155 1 -0.440553 0.193356 0.0323866 0.482206 
462 1 -0.202511 -0.102098 0.136838 0.264876 
2966 1 0.134848 0.0172623 -0.0711527 0.153443 
750 1 0.00674473 0.109027 -0.0224173 0.111511 
3162 1 -0.125821 0.135629 -0.0144457 0.185566 
3022 1 -0.162844 0.0726473 -0.0180397 0.179224 
449 1 0.00168159 -0.0429482 -0.0168468 0.0461648 
772 1 -0.147687 -0.158798 0.103175 0.240152 
886 1 -0.22768 0.0201028 0.296325 0.374233 
100 1 -0.0526517 -0.031387 -0.0520775 0.0804327 
3647 2 -0.45793 0.071051 0.0502932 0.466131 
2890 1 -0.132673 0.024844 0.111128 0.174839 
1285 1 -0.185313 0.214833 0.371865 0.467737 
943 1 -0.141524 0.0695002 0.0451911 0.164017 
3305 1 0.0294273 0.133951 0.109472 0.17548 
3209 1 -0.309076 -0.043441 -0.0235721 0.313003 
4318 2 -0.226019 -0.0414991 0.12458 0.261394 
3409 1 -0.141504 -0.0780417 0.121137 0.20196 
3531 2 -0.0228945 -0.0503339 0.128418 0.139817 
3404 1 0.104212 -0.0910551 0.0266219 0.140925 
3883 2 0.0574123 0.0537355 0.0484274 0.092352 
3227 1 0.0231012 -0.0527671 0.135592 0.14732 
373 1 0.089619 0.194505 -0.0458772 0.219017 
398 1 0.196119 -0.0338942 0.0124117 0.199413 
221 1 -0.133593 0.127008 0.0965694 0.208096 
771 1 -0.427663 0.0916463 -0.0671938 0.442504 
4297 2 0.179295 0.180242 -0.15856 0.299625 
3221 1 0.0379127 0.403717 0.294961 0.501425 
412 1 -0.0729811 0.207413 0.147429 0.26473 
836 1 -0.0650886 -0.256625 0.220498 0.344547 
3319 1 0.268813 -0.501276 0.192507 0.600497 
1212 1 -0.00857245 0.0575985 0.272801 0.278947 
394 1 0.371604 0.455088 -0.0645502 0.591068 
3013 1 0.60939 0.133082 -0.485475 0.790413 
3350 1 -0.36976 1.22649 0.707618 1.46346 
3360 1 -0.287445 0.136459 0.350807 0.473615 
3093 1 -0.807171 -0.0652098 -0.429127 0.916476 
3324 1 -0.00619641 -0.458718 0.0840892 0.466403 
2745 1 0.0845327 -0.274224 0.0939577 0.301948 
3546 2 -0.636835 -0.208804 -0.820343 1.0593 
1449 1 -0.0177966 -0.220017 0.136913 0.259749 
287 1 -0.172371 0.0194605 0.0379048 0.177559 
3483 2 -0.179616 0.0712929 0.140698 0.239041 
3337 1 0.0316278 0.00837181 -0.153406 0.156856 
951 1 -0.212038 -0.0115113 0.138175 0.253348 
228 1 0.104911 -0.265763 0.278584 0.399056 
2737 1 -0.287608 -0.103648 0.00984929 0.305873 
2959 1 -0.124009 0.0714926 0.136479 0.197777 
4116 2 -0.3202 -0.188394 0.244089 0.444522 
3392 1 0.115624 -0.00390495 -0.326541 0.346429 
3678 2 -0.141729 0.0430515 0.231134 0.274524 
389 1 0.00183485 -0.0502072 -0.0712919 0.0872163 
483 1 0.0270523 0.0988095 0.132719 0.167659 
716 1 -0.00928448 0.062532 -0.0831803 0.104477 
601 1 -0.103725 0.159999 -0.00795994 0.190845 
3617 2 -0.0974904 0.0409739 -0.0261252 0.10893 
206 1 -0.0328411 0.0796946 -0.0308399 0.091547 
71 1 -0.0938126 -0.0110119 -0.0441338 0.104259 
4185 2 -0.0841214 -0.225681 -0.11616 0.267397 
3676 2 0.212723 0.0482921 0.0358959 0.221069 
3561 2 -0.115391 0.0257387 0.072654 0.138767 
1313 1 -0.102904 -0.0259736 -0.0601689 0.122001 
838 1 -0.0753065 0.0714587 -0.0297818 0.108002 
388 1 -0.0585563 0.0915778 0.170207 0.201955 
3668 2 0.129007 0.375532 0.0479825 0.399962 
460 1 -0.11284 0.0156546 0.0472347 0.123325 
499 1 -0.0803571 0.146415 -0.131178 0.212372 
444 1 0.00401698 0.116261 0.0887558 0.146323 
962 1 -0.0164861 0.00785567 0.0271177 0.0326936 
3548 2 -0.0744538 0.337312 0.0779572 0.354118 
482 1 0.00955218 -0.200551 -0.163402 0.258867 
291 1 0.1585 -0.0114329 -0.00788338 0.159107 
1314 1 0.0833379 0.234108 0.22408 0.334609 
375 1 0.181301 0.0391905 0.0304275 0.187967 
94 1 -0.0416531 0.36144 -0.171904 0.402399 
37 1 0.0961737 -0.293166 0.154731 0.345163 
4309 2 -0.138944 -0.151623 0.0367475 0.208915 
3672 2 0.127313 0.0299929 -0.0172044 0.131925 
4263 2 1.32983 0.683309 -0.0784716 1.49717 
355 1 -0.789057 0.301183 0.617437 1.04621 
3588 2 -0.190771 -0.923343 -0.579996 1.10696 
1354 1 0.0577495 -0.475908 -0.0961945 0.488955 
392 1 0.0209705 -0.0976576 0.00641863 0.10009 
901 1 0.118514 -0.225221 -0.11429 0.278984 
436 1 0.0370053 -0.0185766 -0.0509401 0.0656458 
792 1 0.0981431 -0.18673 -0.166807 0.268933 
3293 1 -0.0820767 0.138414 0.0833025 0.181203 
4284 2 -0.37781 0.655621 0.475137 0.893496 
318 1 -0.0982007 0.123826 -0.173045 0.234352 
3180 1 -0.676603 -0.419377 -0.203307 0.821585 
1373 1 -1.31016 0.259303 -0.328712 1.37543 
490 1 0.457684 0.0450365 -0.870062 0.984129 
3095 1 0.410006 0.122382 -0.0392812 0.42968 
3314 1 -0.00475507 -0.297617 -0.116045 0.319476 
2732 1 -0.010497 0.218195 0.0675411 0.22865 
924 1 -0.0751898 0.0678074 0.120577 0.157449 
433 1 0.0282081 0.103061 0.091221 0.140494 
3320 1 -0.390935 -0.593696 0.35199 0.793223 
1324 1 -0.0198122 0.0691008 0.0755487 0.104284 
1145 1 0.0203842 0.0223122 0.148049 0.151102 
3225 1 0.0624067 0.0522368 0.0842815 0.117161 
3094 1 -0.0230359 0.0104911 0.0991881 0.102367 
4271 2 -0.081461 0.210779 0.0268693 0.227565 
1172 1 -0.00786269 -0.00818216 0.0495698 0.0508521 
652 1 -0.0128136 0.0455065 -0.116911 0.126108 
3568 2 -0.0353103 0.20532 0.0810909 0.223559 
3419 1 -0.120486 0.0629527 -0.000642324 0.135943 
3560 2 0.00644252 -0.0455322 -0.0768159 0.0895286 
3433 1 -0.115546 0.0644668 0.0888443 0.159375 
187 1 -0.123005 0.11437 0.222539 0.278808 
491 1 -0.0655689 0.0379286 -0.0516717 0.0916942 
248 1 0.075802 0.21102 0.00443407 0.224266 
325 1 -0.0681779 0.0236365 -0.141541 0.158873 
292 1 -0.0454921 0.00562807 0.0331054 0.0565436 
3444 1 -0.0226586 0.0637377 -0.0722624 0.0989837 
908 1 0.279303 -0.357006 0.116408 0.46799 
3504 2 0.258302 -0.101778 0.000517785 0.277631 
1289 1 0.00678454 0.115032 0.122594 0.168249 
3435 1 0.0067231 -0.0341826 0.084132 0.0910595 
3281 1 0.342666 -0.0686602 0.300683 0.461025 
874 1 0.0148192 -0.313483 0.152359 0.348862 
980 1 -0.0916185 -0.169368 0.198852 0.276806 
3331 1 0.26233 0.0696707 -0.283958 0.392814 
4239 2 0.758449 1.43247 -0.745806 1.78422 
810 1 0.117729 -0.107312 -0.0248683 0.161228 
85 1 -0.0890927 -0.0992612 0.00911074 0.133691 
3125 1 -0.235351 -0.133507 0.219367 0.348333 
968 1 -0.0194744 -0.0856224 0.189034 0.208433 
4280 2 0.529613 0.173017 -0.312184 0.638657 
416 1 0.215603 0.0118463 0.225661 0.312327 
365 1 0.124152 -0.00391845 0.115554 0.169652 
3799 2 -0.048108 -0.269571 -0.0267493 0.275133 
2819 1 0.16698 -0.232776 0.112787 0.307877 
2776 1 -0.181641 -0.285928 -0.206183 0.396559 
382 1 -0.21159 0.324657 -0.200146 0.436155 
404 1 0.0535435 -0.0110684 -0.0861901 0.102069 
3291 1 0.218413 0.00136199 -0.144811 0.262062 
863 1 0.098108 -0.425246 -0.270046 0.51321 
957 1 0.264468 -0.0390924 -0.15738 0.310225 
474 1 -0.222008 -0.0489095 -0.954237 0.980942 
3070 1 0.120819 -0.0363897 -0.113411 0.169657 
2973 1 0.162658 0.495666 -0.365897 0.6372 
783 1 -0.669589 -0.14573 0.0949156 0.691806 
3535 2 -0.0736972 0.181988 -0.0308088 0.198746 
781 1 0.268475 -0.193159 0.0574552 0.335694 
471 1 -0.31311 0.208917 -0.00979522 0.376537 
107 1 -0.225554 0.015628 0.0456837 0.230664 
4256 2 -0.746371 -0.27454 -0.242666 0.831462 
496 1 -0.317457 0.189216 0.0480526 0.372681 
2993 1 -0.734373 0.124512 -0.121627 0.754719 
279 1 0.240043 0.302774 0.0286719 0.387446 
4285 2 0.0291014 -0.246157 -0.365662 0.441757 
517 1 0.372184 0.0266949 0.0219467 0.373785 
3643 2 0.10951 -0.291572 -0.777465 0.837531 
1254 1 -0.0739832 -0.0508447 0.118653 0.148786 
917 1 -0.10618 -0.00187117 -0.0338506 0.111461 
4028 2 -0.108006 -0.0540793 0.0897138 0.150461 
3322 1 -0.0164717 0.104865 0.163828 0.195212 
3863 2 -0.241162 -0.0668687 0.0821495 0.263399 
274 1 -0.0614747 -0.0584692 -0.0784641 0.115561 
1091 1 -0.112125 -0.0397658 0.140267 0.183925 
3396 1 -0.0160496 -0.0106374 0.048589 0.0522651 
4182 2 0.90428 -0.415438 -0.731413 1.23502 
329 1 -0.164189 0.047706 0.00720073 0.171131 
502 1 -0.0537421 0.0441237 0.0685801 0.0976645 
2545 1 -0.153599 0.043873 -0.00387784 0.159789 
3327 1 -0.172189 -0.00485314 -0.0742346 0.187573 
3674 2 0.0250601 0.258032 -0.0330767 0.261348 
1418 1 0.0438249 -0.0900854 -0.14332 0.174862 
443 1 -0.110245 -0.063685 -0.0110312 0.127795 
855 1 0.0596653 -0.099146 -0.05219 0.12694 
3476 2 0.112405 -0.0341696 0.105918 0.158181 
4307 2 -0.0429509 -0.108614 -0.0428781 0.12442 
2869 1 -0.0439388 -0.152576 0.167652 0.230905 
177 1 -0.0731175 0.0990025 0.0458324 0.131333 
363 1 -0.0310917 -0.281014 -0.13085 0.311541 
1450 1 -0.00508586 -0.00382874 0.0824447 0.0826901 
3559 2 -0.019909 0.0946199 0.179089 0.203524 
4237 2 0.0746422 -0.215896 -0.0449594 0.232817 
347 1 -0.101906 0.0495519 0.210332 0.238913 
295 1 0.0445553 -0.108984 -0.00922851 0.118101 
875 1 0.061015 0.0300112 0.190437 0.202212 
268 1 -0.209992 0.0791849 0.0964596 0.244278 
830 1 -0.0499178 -0.0712555 -0.0466418 0.0987147 
937 1 -0.0504954 -0.0857681 0.172277 0.198961 
854 1 0.0488628 0.0338847 -0.0761622 0.0966252 
442 1 -0.0996785 -0.122126 -0.00915515 0.157906 
4264 2 0.203113 -0.0672917 0.0332263 0.216534 
402 1 0.224985 0.204849 -0.0594514 0.310026 
964 1 0.627019 0.0938696 -0.646111 0.90522 
793 1 0.697688 0.165707 -0.624135 0.950669 
3397 1 0.0790738 -0.111169 -0.00300592 0.136456 
486 1 0.415823 0.00772205 -0.773001 0.877781 
419 1 1.14263 -0.328132 -0.1499 1.19822 
3378 1 0.0506404 0.133002 -0.00783729 0.142533 
757 1 0.136292 -0.0330246 0.0221125 0.141969 
314 1 -0.169181 -0.113612 0.0698906 0.21544 
36 1 0.42216 0.119674 -0.160145 0.467105 
1337 1 0.196614 -0.0704455 -0.0737964 0.221508 
3544 2 0.26092 -0.00580955 0.04645 0.265086 
1430 1 0.145109 -0.10755 0.146042 0.232275 
3200 1 0.212906 -0.00782681 0.207622 0.297485 
647 1 0.290107 0.0942732 -0.213367 0.372257 
3380 1 0.248428 -0.0759704 0.19152 0.32275 
699 1 -0.122461 0.242261 0.23343 0.358018 
3240 1 -0.207088 -0.0174369 0.253203 0.327569 
113 1 -0.0277235 0.0252587 0.157754 0.162151 
504 1 -0.137517 -0.0131584 0.221047 0.260664 
822 1 0.323485 -0.0501851 0.198232 0.382697 
3383 1 -0.0198372 0.134092 0.0984181 0.167512 
225 1 -0.0680895 -0.36899 0.185951 0.418769 
2795 1 -0.179056 -0.0808652 0.106862 0.223651 
3545 2 -0.028646 0.0732001 -0.175176 0.192003 
581 1 -0.150497 -0.0186021 0.0846862 0.173687 
3541 2 -0.105332 -0.016277 -0.00361413 0.106644 
786 1 -0.0443162 -0.0606314 0.0676512 0.101078 
800 1 -0.00793376 -0.189238 -0.0347519 0.192566 
367 1 0.0220555 -0.0486874 0.0557526 0.0772351 
2687 1 -0.103167 -0.0901525 0.0175387 0.138125 
439 1 -0.0898713 0.0786923 0.0885584 0.148701 
3266 1 0.0532109 -0.067462 -0.203422 0.220824 
319 1 -0.20163 -0.220669 -0.00584681 0.298971 
3096 1 -0.246115 -0.194874 0.030755 0.315427 
2814 1 0.0342098 0.104075 0.118662 0.161501 
1723 1 -0.107521 -0.0938034 0.0270184 0.145224 
3264 1 -0.0844798 -0.167999 0.118165 0.222089 
440 1 -0.107119 0.0482896 0.236677 0.264239 
431 1 -0.0926402 -0.0470115 0.248541 0.269379 
4098 2 0.100127 -0.114991 0.43385 0.459863 
899 1 0.129513 -0.090089 -0.150758 0.218215 
501 1 -0.0605279 -0.176296 0.082262 0.203743 
2656 1 -0.0391382 0.0156626 0.0621387 0.0750888 
801 1 -0.0406626 -0.0309983 0.140101 0.14914 
3082 1 -0.0237394 0.0862722 0.0618603 0.10878 
421 1 0.0460933 -0.0546888 -0.0340966 0.079234 
4152 2 -0.190221 0.20173 0.0268869 0.278571 
357 1 -0.301761 0.488098 -0.656687 0.872088 
840 1 -0.0553038 0.0884611 -0.290353 0.308527 
819 1 -0.126341 -0.216152 0.0313344 0.252321 
3192 1 0.0930969 -0.0551364 -0.614984 0.624429 
3420 1 0.0206333 -0.186857 -0.105464 0.215555 
461 1 -0.0947873 0.0632695 -0.0640715 0.13074 
3339 1 -0.408183 0.378557 -0.574785 0.800185 
3371 1 0.134116 0.196836 -0.262957 0.354793 
2884 1 0.158176 -0.101357 -0.115284 0.220416 
3436 1 0.0249002 -0.0151366 -0.0574704 0.0644359 
4143 2 0.0187695 -0.10167 -0.36885 0.383066 
4298 2 -0.16699 -0.137705 0.137057 0.256189 
31 1 -0.00852261 -0.0261254 0.0258298 0.0377141 
1409 1 0.163614 -0.129434 -0.104685 0.233413 
308 1 0.0956162 -0.106218 -0.197027 0.243401 
423 1 0.0998184 -0.0619479 -0.0340867 0.122324 
3219 1 0.572661 -0.323123 -0.677393 0.944039 
654 1 -0.0633546 -0.0604663 0.152729 0.176057 
3487 2 0.0372962 0.136934 0.0679543 0.157352 
307 1 -0.0750357 -0.00965399 0.0246985 0.0795837 
1304 1 0.0859179 -0.0184996 0.00482974 0.0880196 
3434 1 -0.0684747 -0.101283 -0.0891791 0.151328 
328 1 0.0226812 -0.154023 -0.0198465 0.156944 
3312 1 -0.0889068 0.0913601 0.00549333 0.127598 
430 1 -0.259825 -0.195701 0.114822 0.344952 
128 1 -0.0315356 -0.0678927 -0.0687135 0.101614 
907 1 -0.135926 -0.144387 0.0626108 0.207951 
1641 1 -0.0852608 0.119872 -0.102212 0.179126 
1934 1 0.0468193 -0.160876 0.0375813 0.171714 
1535 1 0.100247 -0.19349 0.0229713 0.219125 
933 1 0.126208 0.103087 0.0872913 0.184865 
3778 2 -0.0857132 -0.102126 -0.0372183 0.138425 
858 1 -0.050336 0.145248 -0.253942 0.296845 
1516 1 0.0477817 0.0249777 0.00516071 0.0541628 
683 1 -0.0718256 -0.225849 -0.0483056 0.241868 
1474 1 -0.0503846 0.0902479 0.144667 0.177797 
606 1 0.055664 -0.148718 0.130474 0.205521 
573 1 0.00685889 -0.025865 0.00178069 0.0268182 
3844 2 0.0977659 -0.221921 0.0515769 0.247926 
631 1 0.146005 0.0927716 0.0817243 0.191319 
3600 2 0.203741 0.102537 -0.174333 0.287082 
1569 1 0.113709 -0.162586 -0.0570608 0.206446 
63 1 0.0222891 0.0211541 0.0493654 0.0581484 
577 1 -0.0174582 0.0327673 0.041553 0.0557237 
565 1 0.0308465 0.0532117 0.120748 0.13551 
3616 2 0.0460855 0.0294297 0.127972 0.139165 
3418 1 -0.0318664 -0.0782347 0.0997027 0.130678 
4176 2 -0.00108078 0.0198539 0.0162769 0.025696 