ITEM: TIMESTEP
1020000
ITEM: NUMBER OF ATOMS
4320
ITEM: BOX BOUNDS pp pp pp
0.0000000000000000e+00 1.9309999999999999e+01
0.0000000000000000e+00 1.9309999999999999e+01
0.0000000000000000e+00 9.6549999999999994e+00
ITEM: ATOMS id type c_displacement[1] c_displacement[2] c_displacement[3] c_displacement[4] 
381 1 -0.136212 -0.404126 0.193046 0.468121 
3196 1 -0.173927 -0.614087 -0.356845 0.731226 
817 1 0.0301493 -0.201416 0.0871393 0.221519 
303 1 -0.0827485 -0.855819 -0.382267 0.940958 
2478 1 0.378045 -0.497306 0.541847 0.826939 
536 1 -0.149284 -0.177004 0.677414 0.715895 
677 1 -0.214471 -0.491255 0.519033 0.74614 
87 1 0.429209 -0.179561 -0.902247 1.01514 
3230 1 0.157355 -0.060416 0.201631 0.262804 
3651 2 0.139138 -0.24609 0.327965 0.43299 
2939 1 0.0196643 -0.186818 1.41067 1.42312 
66 1 0.193781 -0.109042 0.284388 0.360996 
3533 2 -1.49712 -1.17519 -1.75082 2.58608 
716 1 -0.209955 -0.15189 0.376154 0.456775 
400 1 0.626362 -0.949356 -0.41741 1.21154 
2936 1 -0.227766 0.458666 -0.0536496 0.514908 
2961 1 -0.853866 0.402869 0.197775 0.964627 
727 1 0.0653283 -0.0732452 0.235409 0.255049 
18 1 -0.173582 -0.409649 0.0183971 0.445288 
688 1 0.350857 -0.015156 0.142008 0.378809 
58 1 0.144117 -0.157107 0.13482 0.252248 
190 1 -0.0983753 -0.410875 0.0154326 0.42277 
3514 2 0.425331 -0.111046 0.160738 0.468054 
3251 1 0.267953 0.111256 -0.341236 0.447905 
4177 2 -0.368628 -0.118167 -0.048548 0.390137 
3743 2 -0.375557 0.428674 -0.759741 0.949742 
3118 1 -0.0398841 -0.706633 -0.36781 0.797625 
775 1 0.425876 -0.445994 0.311833 0.691029 
217 1 -0.0356509 -0.126752 0.0354603 0.136361 
608 1 -0.231605 0.120895 -0.355023 0.440792 
28 1 0.0141572 0.327125 -0.565732 0.653655 
823 1 0.380575 -0.620962 -0.258732 0.772899 
4193 2 1.3817 -0.208932 0.874566 1.64852 
4170 2 -0.115157 -1.21156 -1.16468 1.68452 
3478 2 0.855284 0.160867 -0.265741 0.909949 
3024 1 0.614315 -0.370723 -0.342329 0.794989 
129 1 0.86284 -0.335504 -0.00561087 0.92579 
121 1 0.736375 6.8857e-05 -0.0588864 0.738726 
562 1 0.741161 -0.277193 -0.183714 0.812346 
2453 1 -0.352308 0.527619 -1.09035 1.2615 
215 1 -0.323056 -0.0523245 0.229158 0.39952 
232 1 0.361537 0.161991 0.0844756 0.405076 
70 1 1.22643 0.436484 0.291381 1.334 
3627 2 0.827582 1.58054 0.39424 1.82713 
49 1 -0.661862 -0.0872815 -0.0175627 0.667823 
301 1 0.489571 0.278638 0.0944526 0.571175 
532 1 -0.493728 0.073824 0.319537 0.592724 
4214 2 -0.168766 0.609994 0.310098 0.704794 
246 1 0.321564 0.347551 0.034342 0.474737 
473 1 -0.468586 -0.245596 -0.115594 0.541527 
3393 1 -0.145874 -0.445181 0.344355 0.581417 
3877 2 0.146813 -1.5556 -0.0344037 1.56289 
118 1 -0.117813 -0.498835 0.408422 0.655381 
3455 1 1.62599 0.164738 1.45926 2.19099 
484 1 1.24703 -0.368822 1.11595 1.71361 
3135 1 0.137311 0.60396 -0.229872 0.660654 
197 1 0.276708 0.441194 -0.321602 0.612084 
4053 2 1.53235 -0.538795 0.770594 1.79784 
4071 2 -1.44357 0.607539 1.07624 1.90034 
351 1 0.213111 -0.252304 0.345953 0.478286 
2945 1 0.41939 -0.486405 1.79663 1.90797 
323 1 -1.13731 0.225836 0.753113 1.38263 
3189 1 -0.157735 0.421035 -0.350719 0.570224 
527 1 0.263866 -0.449712 0.114416 0.533813 
2983 1 0.616964 -0.150016 -0.0502288 0.636924 
1415 1 0.00648748 -0.381111 0.299739 0.484903 
3002 1 0.489538 -0.115206 -0.422137 0.656596 
894 1 -0.00413306 1.51609 0.527559 1.60526 
226 1 0.648133 -0.341425 -0.294333 0.78948 
93 1 0.0643908 -0.202288 -0.0602765 0.220681 
110 1 -0.431442 0.0183074 0.541656 0.692725 
639 1 -0.230993 -0.279702 0.121403 0.38253 
3353 1 -0.48592 -0.507229 0.867709 1.11639 
569 1 -0.00675516 -0.346136 0.499672 0.607888 
718 1 -0.380471 1.38879 0.209103 1.45507 
180 1 -0.040533 -1.13899 0.841897 1.41694 
50 1 0.338613 0.22681 0.0863636 0.416606 
106 1 -0.558954 -0.467152 0.725176 1.02788 
2596 1 -0.311873 0.0959309 -0.347493 0.476675 
3055 1 -0.169685 0.366597 -0.274133 0.488196 
2495 1 -0.0113675 -0.104274 -0.050869 0.116576 
3835 2 0.279778 0.783773 0.33026 0.895347 
3152 1 0.00621705 0.152762 -0.747276 0.762755 
3232 1 0.0582105 0.452484 -0.634664 0.781619 
559 1 -0.382713 -0.207231 0.050004 0.43808 
738 1 0.203054 0.302741 -0.646333 0.742044 
3712 2 0.580042 0.337302 0.862539 1.09279 
12 1 -0.0829851 0.515376 -0.473332 0.704658 
339 1 -0.615964 -0.523552 -0.293393 0.859999 
3167 1 0.0344348 0.331268 -0.0910916 0.345285 
1271 1 -0.812715 0.374355 -0.297117 0.942829 
988 1 -0.0849395 0.0855655 -0.0898875 0.150386 
354 1 -0.170903 0.127699 0.203097 0.294556 
568 1 0.419755 0.0748807 0.352227 0.553051 
4289 2 -0.213352 0.0501542 -0.670269 0.705191 
210 1 0.557437 0.298368 0.404968 0.750839 
3632 2 -0.0851788 -0.102644 0.262404 0.294359 
390 1 0.0761909 0.471658 0.163232 0.504887 
3244 1 0.010812 0.0522439 0.178755 0.186547 
3346 1 -0.0683306 0.188096 -0.882807 0.905205 
4278 2 -0.539516 0.0328935 0.406031 0.676032 
3460 2 0.164969 0.106157 -1.43774 1.45106 
3006 1 0.391803 0.117462 0.231309 0.469905 
4256 2 -0.371958 1.64795 -1.30591 2.1353 
29 1 -0.148767 0.390925 0.196292 0.462044 
553 1 -0.681004 1.01717 -0.765911 1.44396 
753 1 -0.0246179 -0.126705 0.0975884 0.161814 
23 1 0.0444378 0.107672 0.153357 0.192578 
546 1 -0.0167719 0.529902 -0.0672635 0.534417 
479 1 0.271036 0.603717 -0.409359 0.778145 
3467 2 0.174398 0.733604 0.197636 0.779519 
96 1 0.175976 -0.408697 0.3977 0.596797 
53 1 0.673149 0.174778 -0.169513 0.715829 
2735 1 0.325798 0.701425 0.132335 0.784636 
437 1 0.997432 0.246522 0.00358806 1.02745 
725 1 0.384455 -0.63799 1.24345 1.44948 
3040 1 -0.24585 0.121045 0.220721 0.351869 
317 1 0.458292 0.45528 0.183293 0.671497 
167 1 -0.179369 0.286999 0.508344 0.610701 
3149 1 0.109238 0.530124 0.436 0.695025 
550 1 0.0960491 -0.485192 0.507843 0.708901 
21 1 -0.164167 -0.931984 0.860412 1.279 
147 1 0.410363 0.03539 -0.362906 0.548954 
89 1 0.340202 0.581198 1.18059 1.35917 
3786 2 -0.168692 -0.493956 -0.806655 0.960802 
80 1 -0.364633 0.0180254 0.424971 0.560252 
2591 1 0.175317 -0.0410145 -0.41335 0.450862 
158 1 -0.312182 0.209587 -0.550772 0.666883 
610 1 -0.232957 1.8143 -0.21192 1.84143 
4169 2 -0.682961 -0.0963796 -0.52696 0.867993 
5 1 0.0692552 0.699151 -0.216673 0.735225 
821 1 -1.06019 0.00958159 -1.11581 1.53919 
859 1 -0.174426 0.193393 -0.23892 0.353424 
3623 2 0.594998 0.400956 -0.266343 0.765328 
424 1 0.114974 -0.0376425 -0.0749465 0.142313 
728 1 0.0954012 -0.226227 0.37518 0.448375 
151 1 -0.407978 -0.17115 -0.229909 0.498595 
43 1 0.0973389 0.0944187 -0.199868 0.24153 
2461 1 0.0358741 -0.0712383 -0.0509201 0.0946293 
103 1 -0.518754 0.369551 -0.824465 1.04183 
3023 1 0.158647 0.136376 0.108656 0.23574 
3730 2 -0.0829046 0.0587019 -0.16598 0.194598 
623 1 -0.0239912 0.182624 0.249412 0.310053 
3578 2 0.486757 0.191633 0.775183 0.935181 
343 1 0.405795 0.225881 -0.931784 1.04111 
155 1 -0.253762 0.0114139 0.200605 0.323679 
2960 1 -0.0693887 -0.058415 0.0362166 0.0976665 
231 1 0.204163 0.727512 0.717417 1.04194 
2056 1 1.18298 -0.55209 -0.0143636 1.30555 
602 1 -0.234341 -0.107117 0.545008 0.602846 
137 1 -0.531617 -0.619984 0.11192 0.824332 
78 1 0.878585 0.317844 -0.0348853 0.934961 
3188 1 0.0531409 0.484469 0.203985 0.52834 
3464 2 -0.727501 -1.05393 -0.415795 1.34644 
4257 2 1.89979 0.960892 0.617021 2.21658 
675 1 -0.515512 -0.592792 -1.8794 2.03698 
691 1 0.192006 -0.471708 0.184747 0.541761 
140 1 -0.113039 -0.229052 0.435124 0.504555 
1487 1 -1.78744 -0.388377 -0.723562 1.96706 
2950 1 -0.895025 -0.610104 -0.441955 1.16988 
2500 1 0.0478741 0.00749695 0.135016 0.143449 
95 1 -0.255558 0.156517 0.503236 0.585709 
593 1 0.0325262 0.775487 0.890016 1.18092 
759 1 -0.176021 -0.444639 -0.606495 0.772349 
529 1 1.04759 0.997336 -0.27203 1.47177 
1480 1 -0.013086 -0.20154 0.398852 0.447071 
609 1 -0.656853 0.676457 1.04107 1.40459 
133 1 0.0876796 0.206176 -0.123912 0.256028 
2494 1 0.166881 -0.622229 -0.16674 0.665448 
1133 1 0.995222 -0.63142 0.417892 1.25052 
330 1 -0.447494 0.71795 -0.465967 0.96583 
211 1 0.36637 -0.735767 -0.380337 0.905669 
185 1 0.609708 -0.0912957 -0.300264 0.685738 
75 1 0.550235 0.0382747 0.616148 0.826959 
1331 1 -0.457553 1.15815 0.555564 1.36357 
4094 2 0.869883 -0.588287 -0.254936 1.08063 
98 1 0.329065 1.03404 0.875968 1.39457 
3041 1 -0.214633 0.927633 1.13003 1.47768 
1130 1 0.598246 1.37615 0.471174 1.5728 
604 1 -0.380755 0.415068 0.278975 0.628556 
4173 2 -0.406031 0.961558 -0.409326 1.12116 
3037 1 0.158848 0.552873 -0.194847 0.607344 
580 1 -0.391918 -0.000954112 0.265801 0.473551 
193 1 0.435724 0.258838 0.624099 0.80396 
4212 2 -0.4031 0.530383 -0.0142963 0.666334 
3164 1 0.231531 1.03771 0.149626 1.0737 
2996 1 -0.140145 0.339151 -0.154911 0.398323 
3010 1 0.0905097 0.356233 -0.45296 0.583323 
233 1 -0.221491 1.65581 0.38455 1.71425 
3279 1 0.249009 0.214883 0.140062 0.357488 
3608 2 0.155103 0.0966967 0.256499 0.314958 
3841 2 -0.622587 0.496129 0.113301 0.804111 
2981 1 -0.335621 0.430541 -0.422283 0.690167 
338 1 0.0639733 0.0946701 -0.304885 0.325592 
4101 2 0.26279 0.355078 -0.370063 0.576269 
237 1 -0.330016 0.547905 -0.309339 0.710494 
3216 1 -0.109575 0.436358 -0.219682 0.500675 
3477 2 0.592743 -0.778188 -0.95559 1.36751 
3736 2 -0.0810685 -0.311422 -0.656137 0.730802 
446 1 -0.0491364 -0.135965 -0.395241 0.420852 
3408 1 -0.0239544 0.106477 0.294186 0.313778 
379 1 -0.636239 -0.48993 -0.0375172 0.80389 
600 1 -0.141177 0.690058 0.0606835 0.706961 
4253 2 0.265672 0.196269 -0.276674 0.430873 
1457 1 0.207355 0.205226 -0.296528 0.415984 
640 1 0.12589 0.37505 -0.977933 1.05492 
4217 2 0.0584043 0.675275 0.244263 0.720466 
387 1 0.15448 0.191795 0.0263979 0.247681 
3513 2 -0.539264 0.186916 0.458176 0.731894 
199 1 0.0637891 -0.514623 -0.13434 0.53568 
174 1 -0.533487 -0.153923 0.492193 0.741994 
2931 1 -0.339389 -0.240425 0.6674 0.786392 
3537 2 -0.688519 0.173853 -0.31367 0.77632 
3394 1 -0.937375 -0.28794 -0.12464 0.988492 
508 1 -0.666827 0.0699675 0.461421 0.813918 
742 1 0.146047 0.463782 -0.224263 0.53546 
2968 1 -0.353955 -0.573404 -0.193253 0.701016 
877 1 -0.267423 0.640307 0.427673 0.815115 
717 1 -0.779387 0.19798 1.07498 1.34247 
40 1 0.127321 -0.404064 0.453157 0.620347 
3411 1 -0.599696 0.160651 0.342028 0.708821 
3057 1 0.505564 0.585054 -0.116386 0.781939 
4204 2 0.0961218 -0.325807 0.307223 0.458012 
835 1 -0.215151 0.611574 -0.0403344 0.649569 
3576 2 -0.414121 2.03179 -0.790998 2.21931 
57 1 0.62786 -0.579547 -0.179632 0.873127 
685 1 -0.053104 -0.195339 -0.0326981 0.205053 
64 1 -1.61283 -0.865246 1.09065 2.13058 
86 1 0.982307 0.990868 -0.475177 1.47395 
157 1 -0.0862549 0.359943 -0.695446 0.787809 
241 1 -0.175861 0.509441 1.23559 1.34801 
704 1 -0.0875688 0.380862 0.501422 0.635726 
721 1 0.413403 0.722009 0.509575 0.975636 
67 1 -0.0462398 0.199321 0.0815668 0.220273 
181 1 -0.783653 -0.639428 0.354667 1.07181 
665 1 -0.158863 0.519992 0.159791 0.566711 
493 1 -0.51907 0.507029 0.497486 0.879776 
2988 1 -0.228686 0.189652 0.0402147 0.299804 
4027 2 1.70149 -1.3274 -0.187106 2.16612 
2004 1 0.621666 0.242586 -0.887388 1.1103 
178 1 0.121443 0.45117 0.149925 0.490693 
3030 1 0.668057 1.01063 0.314156 1.25154 
1036 1 1.07839 0.0946207 -0.324446 1.13011 
3974 2 -1.00942 -0.374636 0.877294 1.38886 
234 1 -0.196684 -0.0459519 -0.0857139 0.219415 
3369 1 -0.141813 -0.0647149 -0.133244 0.205069 
3479 2 0.24965 0.463148 -0.138273 0.544014 
3139 1 0.0863577 -0.0461639 0.166212 0.192912 
3607 2 -0.214077 -0.169907 -0.186814 0.331054 
644 1 -0.0906699 -0.0575553 -0.175654 0.205884 
3007 1 0.356567 0.327142 -1.5117 1.58726 
2758 1 -0.0630812 0.364281 0.333309 0.49777 
3468 2 -0.564972 -0.108341 0.583735 0.81956 
1278 1 -0.533599 0.473651 0.00472106 0.713509 
214 1 -0.150679 -0.123494 0.390009 0.435961 
3644 2 -0.278086 -0.0804182 0.748592 0.802614 
245 1 -0.726564 -0.0837357 0.119405 0.741057 
4089 2 0.33347 -0.0636243 0.0669967 0.346033 
187 1 -0.43223 -0.423267 -0.0336823 0.605898 
3056 1 -0.0625573 0.0275457 0.203775 0.214934 
235 1 -0.305627 -0.144889 0.577977 0.66967 
3078 1 0.0287519 0.226657 0.18425 0.29351 
3130 1 -0.51893 -0.162596 0.579552 0.794736 
207 1 -0.757196 0.0603981 -0.180768 0.780814 
46 1 -0.22412 0.080909 0.773907 0.809758 
3096 1 -0.258442 0.816575 -0.517858 1.00088 
3701 2 0.137233 -0.816838 0.490296 0.962521 
2684 1 0.316361 -0.802541 -0.485877 0.990067 
747 1 -0.6596 -0.0267784 0.747515 0.99728 
3518 2 -0.418879 0.332385 0.403522 0.669903 
312 1 0.972324 -0.118558 0.157691 0.992137 
1102 1 0.195863 0.150098 0.0830773 0.260372 
131 1 0.365632 -0.358941 -0.219274 0.557321 
3603 2 -1.26072 -0.196186 0.657624 1.4354 
3634 2 0.673844 0.199159 3.04237 3.12246 
958 1 -0.0428378 0.325152 0.798251 0.862997 
240 1 0.240737 0.945501 0.192288 0.994435 
587 1 0.0178103 -0.240322 0.24211 0.341598 
134 1 -0.0540195 -0.0665079 0.0724865 0.112231 
1648 1 -0.297235 -0.243708 0.972789 1.04597 
3003 1 0.0605394 -0.43726 0.228609 0.497115 
3643 2 -0.345979 0.104535 -0.660107 0.752576 
4269 2 -0.226008 -0.218305 0.725193 0.790343 
3211 1 0.379224 0.185472 0.0155392 0.422436 
3528 2 -0.429348 -0.853946 0.0566027 0.95748 
3620 2 -0.878129 1.37977 0.68215 1.77206 
3092 1 -0.0801418 -0.0656273 0.00778773 0.103876 
191 1 -0.506791 0.494241 0.748078 1.02992 
1179 1 -0.561285 0.246433 0.163521 0.634436 
733 1 -0.394134 0.441265 -0.116299 0.602977 
902 1 -0.0776507 0.657645 0.0281363 0.662811 
4050 2 -0.91404 -0.377221 0.925239 1.35419 
920 1 -0.108266 0.107576 -0.180126 0.236092 
4195 2 -0.298503 0.563482 0.617332 0.887533 
540 1 -0.940362 0.467936 0.49627 1.16169 
182 1 -0.65237 -0.0638816 -0.430352 0.784137 
657 1 -0.800441 0.693378 -1.08988 1.51964 
690 1 0.104954 0.108336 -0.0488297 0.158544 
6 1 -0.51737 0.257009 -0.127214 0.591531 
4163 2 -0.525281 -0.525986 0.362313 0.826953 
710 1 -0.0773986 0.0515806 0.215124 0.23437 
2926 1 0.00196142 -0.0107732 -0.0972232 0.097838 
1215 1 -0.177396 0.460247 0.476576 0.685873 
195 1 -0.25155 -0.501967 0.230001 0.606752 
3307 1 -0.803396 -0.272805 0.640818 1.06326 
4194 2 -1.60881 1.3002 0.199948 2.07816 
127 1 -0.261254 0.80008 -0.193992 0.863722 
216 1 -0.111179 -0.15426 0.296335 0.352096 
3512 2 -0.717251 -0.731926 0.1752 1.03964 
116 1 -0.161138 0.0664654 0.440343 0.473587 
4228 2 0.0334252 0.727931 -0.0737454 0.732421 
1991 1 0.196524 -1.84303 0.408682 1.898 
1149 1 0.0219465 -0.0322683 0.444529 0.446239 
1077 1 0.27165 0.529579 -0.134819 0.610265 
205 1 -0.198328 -0.155076 0.595037 0.646105 
861 1 -0.428794 -0.219627 -0.308111 0.571868 
694 1 -0.395719 -0.310711 0.144448 0.52345 
221 1 0.399168 0.51772 0.209088 0.686358 
3883 2 -1.65894 -2.07485 -1.83749 3.23008 
3199 1 0.311947 0.260519 -0.166917 0.439366 
1432 1 -0.379385 -0.104305 -0.391026 0.55472 
3531 2 0.572284 -2.41537 -0.528987 2.53798 
3341 1 -0.103478 -0.363639 0.235017 0.445168 
300 1 -1.10426 0.0961025 0.131546 1.11621 
512 1 -0.141796 0.482443 -0.177674 0.533315 
2740 1 -0.167283 -0.00388473 -0.960854 0.975315 
4198 2 -2.14695 -0.333646 0.398632 2.20899 
886 1 -0.17656 0.594178 -0.0681556 0.623591 
3549 2 -1.19409 0.645594 -0.431057 1.42423 
471 1 -0.23926 0.341963 -0.725529 0.837005 
1145 1 -0.774551 -0.275234 -1.02131 1.31101 
3612 2 -1.15447 -1.5771 -0.0782024 1.95606 
364 1 -0.136654 -0.446578 -0.144998 0.48901 
478 1 0.0851092 -0.831587 -0.633117 1.04863 
635 1 -0.449163 -0.292266 -0.625185 0.823422 
334 1 0.701739 0.171604 0.193818 0.747965 
3227 1 1.3854 0.625796 -0.683676 1.66684 
287 1 -0.180659 -0.862046 0.171529 0.89732 
3389 1 0.190013 0.265976 0.0231191 0.327693 
362 1 -0.212936 -0.193609 0.443646 0.528818 
2696 1 -0.048534 -0.00972096 -0.37608 0.379323 
2848 1 0.584204 -0.182446 -0.864014 1.05882 
3482 2 -0.707828 -1.7138 0.0548517 1.85503 
836 1 0.138124 -0.296184 -0.509425 0.605242 
3404 1 0.861725 0.272446 0.0263073 0.904151 
3916 2 -1.74277 -2.26073 -0.530442 2.90336 
2710 1 1.0298 -0.578968 -0.429661 1.2571 
3573 2 -0.472604 0.547921 -1.67949 1.82873 
265 1 0.278689 0.898999 0.103758 0.946907 
3313 1 -0.0947875 -0.0386788 -0.52567 0.535546 
2365 1 -0.312248 0.0628813 -0.553633 0.638719 
951 1 0.520807 -0.544155 -0.665146 1.00487 
306 1 -0.0427747 0.574813 -0.525254 0.779828 
228 1 -0.119792 -0.627508 -0.176638 0.662811 
780 1 0.712655 -0.313114 0.219937 0.808882 
3333 1 -0.146794 -0.0546976 -0.607509 0.627381 
903 1 0.735736 -0.555907 0.327786 0.978664 
3679 2 0.0639161 -1.76571 0.807074 1.94247 
327 1 0.558182 -0.745554 -0.0314822 0.931885 
626 1 -0.1193 -0.571091 0.246955 0.633533 
2329 1 0.0809161 -0.282725 -0.52541 0.60211 
3422 1 0.489893 0.870242 -1.08611 1.47545 
3368 1 0.74405 -0.958318 -0.356896 1.26466 
308 1 -1.47484 -0.373879 0.17096 1.53107 
100 1 -0.410691 0.0874108 -0.312572 0.523459 
206 1 0.586067 -0.65293 -0.986019 1.31986 
462 1 0.552204 -0.0658568 0.103985 0.565755 
2966 1 0.266696 0.19831 -0.489448 0.591619 
750 1 -0.476236 1.04147 0.519354 1.25746 
601 1 0.0772009 0.527678 -0.0817371 0.539523 
3392 1 -0.906202 0.357176 0.0476207 0.975215 
449 1 0.0957331 0.268117 -0.307351 0.418946 
1285 1 0.100479 0.473648 0.00616506 0.484227 
2890 1 0.164308 0.374866 -0.0322903 0.410566 
3209 1 0.557371 0.394442 -0.101451 0.690318 
4318 2 -0.515237 -0.154042 -0.358555 0.646343 
3022 1 0.891198 0.829777 0.0756852 1.22004 
3409 1 -0.0859075 -0.67874 -0.446148 0.816772 
3676 2 0.214011 0.503384 -0.00579236 0.547019 
3197 1 0.141274 0.380309 0.335831 0.526664 
974 1 -1.19841 -0.757697 0.836227 1.64608 
356 1 -0.491387 -0.0488023 0.437866 0.659977 
2732 1 0.455687 -0.03217 -0.0810167 0.46395 
4056 2 -1.68915 -1.72851 -1.53734 2.86433 
373 1 0.653205 0.508892 -0.26102 0.868205 
4146 2 -2.35128 0.231974 -0.514761 2.41812 
1212 1 -0.276775 -0.245593 -0.407817 0.550668 
3249 1 -0.311391 -0.025361 -0.771044 0.831935 
3588 2 -0.0872217 -1.40962 -0.1754 1.42317 
4297 2 0.447093 1.30401 -0.501016 1.46675 
398 1 -0.313136 0.222683 0.0676928 0.390159 
412 1 -0.36386 0.303531 0.0508235 0.476559 
394 1 -0.217473 -0.160169 -0.111898 0.292353 
3785 2 -1.38956 -0.879742 0.382563 1.68854 
1373 1 -1.2371 -1.04632 -0.742214 1.78215 
431 1 0.688384 -0.213303 0.634896 0.960449 
457 1 -0.886428 0.156085 -0.182446 0.91837 
3319 1 -0.083215 0.194703 0.339348 0.399988 
3360 1 -0.179371 0.262064 0.273913 0.41938 
3093 1 -1.12847 0.115586 -0.868054 1.4284 
3324 1 0.0653997 -0.298789 -0.00732458 0.30595 
2745 1 -0.135461 -0.283095 -0.301082 0.434905 
3095 1 0.197841 -0.0984289 -1.2946 1.31332 
3180 1 -0.416388 -0.609007 -0.260612 0.782423 
3379 1 0.713187 -0.54968 0.699112 1.13997 
3337 1 0.450377 -0.775814 0.252227 0.93185 
4225 2 0.185319 0.562683 -0.0874332 0.598832 
3150 1 1.12887 1.50875 -1.62555 2.48859 
3483 2 0.470693 -0.805666 0.755197 1.20041 
915 1 -1.15346 0.423451 0.355232 1.27905 
2838 1 0.232144 -0.490259 0.41441 0.682628 
1304 1 0.0454339 -0.0211603 -0.0701793 0.0862388 
3434 1 -0.567447 0.242321 0.168559 0.639631 
1313 1 1.24315 -0.581047 -0.1111 1.37673 
389 1 0.380859 0.785419 0.00399913 0.872899 
353 1 0.279797 0.149641 -0.177409 0.363528 
3617 2 0.368932 0.6331 -0.129934 0.744184 
71 1 0.219448 0.432101 -0.14121 0.504786 
3094 1 0.351755 0.457822 -0.131204 0.592071 
4185 2 -0.0259459 0.236569 0.199214 0.310361 
943 1 -0.0874571 -0.1481 0.326977 0.369454 
489 1 0.824697 -0.175728 -0.348915 0.91255 
962 1 -0.671938 0.568158 -0.452623 0.989531 
423 1 0.0579217 0.0737529 -0.52304 0.53138 
460 1 0.523216 0.301862 -0.394651 0.721543 
1314 1 0.769497 -0.58531 0.142007 0.977179 
2628 1 0.266269 0.532293 -0.617107 0.857354 
3668 2 -1.43097 0.178259 -0.00250979 1.44204 
3561 2 -0.373233 0.445911 -1.03936 1.19097 
838 1 -0.0356841 0.795033 -0.171518 0.814106 
388 1 -0.205609 0.782537 0.0323983 0.809746 
4309 2 -0.168363 -0.493348 -0.242821 0.575065 
291 1 0.7757 0.0814059 0.117129 0.788705 
375 1 -0.679115 -0.465217 -0.0331966 0.823849 
4109 2 -0.81552 -0.52807 0.189954 0.989956 
439 1 0.478393 0.73585 -0.395096 0.962515 
3301 1 -0.530052 0.0799981 0.264797 0.59789 
792 1 -0.483984 -0.408246 0.691675 0.937721 
901 1 -0.217016 -0.442477 0.0261098 0.493521 
482 1 0.192589 -0.0336532 -0.18986 0.272525 
3293 1 -0.476755 0.195973 0.271056 0.582385 
4182 2 -0.171682 1.22881 -1.05324 1.62751 
436 1 -0.123379 -0.239305 -0.348664 0.440517 
392 1 -0.470081 0.198194 0.110786 0.522045 
37 1 -1.00776 0.167121 -0.230114 1.04712 
2479 1 -0.174176 -1.01595 -0.854245 1.33874 
490 1 0.345528 -0.523409 -0.581567 0.855317 
3266 1 0.511778 0.632279 -0.559728 0.987415 
3314 1 -1.32015 -0.109743 -0.316508 1.36199 
318 1 -1.04642 1.15029 -1.44874 2.12533 
382 1 0.507574 0.146377 -1.5 1.5903 
2771 1 0.724526 -0.950488 0.72448 1.39758 
2052 1 0.170457 0.566884 0.629399 0.864035 
614 1 -0.614924 -0.414457 0.547193 0.921589 
771 1 0.100099 0.0528393 -0.236756 0.262422 
4284 2 -0.623048 0.484156 1.13604 1.38318 
2959 1 1.13121 -0.147885 1.14125 1.61368 
702 1 -0.688643 0.140106 -0.292501 0.761194 
3412 1 -0.226248 -0.601348 -0.597501 0.877391 
3380 1 -0.213958 0.0633287 -0.408925 0.465842 
3582 2 -1.27422 2.24265 0.473221 2.62241 
2944 1 -0.538908 -0.342829 0.76715 0.998235 
3535 2 0.614933 -0.221401 -0.130697 0.666515 
171 1 0.953057 -1.28563 -0.671205 1.73542 
1172 1 0.288149 0.130439 0.286241 0.426589 
3568 2 0.294826 0.228649 -0.0207891 0.373678 
652 1 0.408756 0.251677 0.309407 0.5711 
325 1 0.213183 -0.477562 0.314457 0.610242 
248 1 0.292932 0.165165 0.343318 0.480579 
4271 2 0.387095 -0.0867819 0.819765 0.910707 
3433 1 0.0543952 0.163461 -0.0490562 0.179122 
3419 1 0.142072 -0.011823 0.515329 0.534685 
908 1 0.263861 -0.265972 0.68358 0.779516 
292 1 -0.0135082 -0.341759 0.184077 0.388415 
3504 2 1.10559 -0.0720959 0.563048 1.2428 
3444 1 -0.183101 -0.11534 -0.522466 0.565509 
2869 1 -0.0466299 -0.955356 -0.188617 0.974913 
4307 2 0.732315 -1.1222 -0.912152 1.621 
3331 1 0.158826 -0.29153 -0.420315 0.535612 
496 1 -0.320096 0.333189 0.323365 0.563952 
177 1 -0.358268 -0.092161 -0.576142 0.684682 
430 1 0.35065 -0.215946 -0.168692 0.445023 
980 1 0.186393 -0.826183 -0.218747 0.87474 
225 1 0.22967 -0.469401 0.387709 0.650695 
874 1 0.318705 -0.527566 -0.547995 0.824741 
3312 1 -0.0290748 0.805904 -0.1627 0.822677 
499 1 -0.0941746 0.506213 0.751743 0.911174 
416 1 0.276968 -0.391715 0.231267 0.532575 
2819 1 0.024675 -0.361546 -0.510115 0.625733 
2973 1 1.13612 -0.890528 -0.0578133 1.4447 
3070 1 1.1612 -1.17094 -0.427948 1.7037 
4152 2 -1.07175 -0.453504 -3.0232 3.23945 
968 1 -0.183864 -0.261909 -0.110357 0.338498 
819 1 -0.101085 -0.722328 0.0778355 0.733509 
964 1 -0.520017 -0.896793 -1.66534 1.96163 
474 1 0.191154 -0.280183 -1.1049 1.15579 
3524 2 -1.74454 -1.26517 1.09232 2.41604 
3291 1 -0.171843 -0.0345847 -0.35153 0.39281 
3013 1 1.53675 -0.519907 0.0146055 1.62238 
957 1 0.711706 -0.410424 -0.771431 1.12698 
1337 1 0.28873 -0.597117 0.00466539 0.663276 
793 1 0.899084 -0.503554 -0.621577 1.20344 
92 1 -0.4821 -0.602342 -0.906746 1.19056 
2873 1 0.344227 -0.722557 0.123542 0.809841 
2993 1 -0.224463 -0.197193 -0.13447 0.327645 
160 1 0.290448 -0.162666 0.601293 0.687295 
279 1 0.543982 0.134785 -0.257391 0.616712 
825 1 -0.514536 -0.737233 -0.111376 0.905905 
783 1 -0.598525 0.538049 0.712927 1.07517 
4285 2 -0.8724 -0.106367 -0.746556 1.15314 
517 1 0.135482 0.102223 -0.247197 0.299852 
3219 1 0.62705 -0.567645 -0.793985 1.1601 
917 1 -0.0459527 -0.563165 0.457474 0.727014 
4028 2 -0.295346 0.433384 0.35369 0.632572 
274 1 -0.430792 -0.0889047 0.251133 0.506512 
1091 1 -0.11586 -0.146049 0.0244407 0.188019 
3396 1 -0.274473 0.0431257 0.508649 0.579585 
3863 2 -0.263436 -0.117294 0.601005 0.666606 
3674 2 -0.273123 -2.08518 1.23138 2.43698 
502 1 0.163144 0.00923782 0.194898 0.254335 
3420 1 0.464472 -0.337136 -0.641543 0.860797 
3327 1 0.153402 -0.30624 0.555047 0.652221 
3435 1 0.0536305 -0.161401 0.565241 0.590274 
443 1 -0.219032 -0.0661677 0.321814 0.394864 
1418 1 0.418656 -0.121481 0.447806 0.624949 
855 1 0.293321 -0.0881957 -0.098073 0.321611 
800 1 -0.340314 0.243481 -0.511112 0.660555 
3303 1 0.238607 0.187656 -0.285926 0.417015 
810 1 -0.114168 -0.0249441 0.00604839 0.117018 
1450 1 -0.305318 -0.544158 -0.693347 0.932768 
3559 2 -0.270665 -0.868857 -0.475849 1.02694 
4237 2 0.265896 0.0583781 -0.660994 0.714857 
440 1 -0.201378 -0.50653 -0.704462 0.890725 
830 1 -0.114748 -0.376859 0.0895317 0.403987 
347 1 0.107582 -0.137069 -0.125621 0.214808 
4098 2 0.315682 -0.992693 0.632483 1.21866 
875 1 -0.0253602 -0.606813 0.0782342 0.612361 
295 1 -0.546792 -0.492644 -0.274736 0.785595 
442 1 -0.375839 -0.361785 -0.404542 0.66015 
937 1 0.129797 -0.02934 -0.14407 0.196123 
501 1 0.00871775 -0.316186 -0.0966652 0.330747 
1289 1 -0.619927 1.21217 -0.827366 1.59318 
3397 1 -0.520184 -0.620161 -0.0696846 0.812433 
314 1 0.15569 0.137901 -0.0885069 0.22603 
331 1 -1.2817 0.227001 -0.25796 1.32696 
363 1 -0.33181 -0.341195 -0.472804 0.670861 
486 1 0.730653 -0.0301707 -1.62742 1.78417 
183 1 -0.784861 0.119486 -0.122144 0.803245 
3799 2 -0.245413 1.38921 0.729486 1.58817 
757 1 0.0338252 -0.240592 0.0180095 0.243625 
1409 1 0.260286 0.317405 -0.668594 0.784546 
3378 1 0.10392 -0.0229262 -0.115 0.156684 
899 1 0.107339 0.21203 0.014897 0.238118 
2687 1 -0.293269 -0.298918 0.204078 0.46584 
419 1 0.927301 -0.110303 -0.263197 0.970219 
781 1 -0.0295141 0.391235 -0.951826 1.02952 
3200 1 -0.220002 0.441069 -0.395451 0.631921 
1430 1 -0.359502 -0.449782 -0.195707 0.608151 
822 1 -0.340043 -0.305247 -0.212355 0.503884 
3961 2 1.02348 -2.16164 -0.749009 2.50624 
3278 1 0.0326481 -0.0353223 -0.0567893 0.0744217 
3322 1 -0.0226162 0.0643546 0.0799406 0.105088 
367 1 0.4003 0.00200702 -0.229891 0.461621 
329 1 -0.405586 0.17164 0.408896 0.600963 
3240 1 -0.292559 -0.5758 0.232103 0.6863 
504 1 -0.14289 -0.231398 0.0680281 0.28034 
113 1 -0.217102 0.156884 0.55911 0.61996 
85 1 -0.0749358 -0.0721274 0.677482 0.685419 
402 1 0.284372 0.349732 -0.478904 0.657669 
647 1 0.274767 0.260551 -0.431723 0.574254 
581 1 -0.0831675 -0.258625 0.0727843 0.28125 
393 1 -0.26839 -0.248713 -0.787358 0.868231 
2795 1 -0.13455 0.206394 0.382478 0.454963 
3541 2 -0.946775 0.616231 -0.201534 1.14749 
786 1 -0.391115 -0.245786 0.0611985 0.465969 
772 1 -0.611645 0.055905 -0.671411 0.90996 
3223 1 -0.306397 -0.265889 0.018307 0.406093 
357 1 -1.19393 0.566186 -0.819179 1.5547 
1367 1 -0.513359 0.294231 -0.613146 0.85209 
319 1 -0.145444 -0.296092 0.0548076 0.334407 
1723 1 -0.805094 -0.126593 0.461159 0.936413 
2814 1 -0.63793 0.0637789 -0.673534 0.929876 
4154 2 -1.54052 0.422583 -0.792463 1.78319 
406 1 -1.12862 0.242453 -0.763793 1.38418 
31 1 -1.06068 0.404037 0.641543 1.30379 
866 1 -0.514555 0.473126 0.318883 0.768311 
268 1 -0.821716 -1.0479 1.27531 1.84384 
801 1 -0.0551906 0.0653559 -0.117052 0.144978 
2656 1 -0.100094 0.0978988 0.710356 0.724022 
461 1 -0.332878 0.00166804 0.268578 0.42772 
433 1 -0.0155653 -0.118152 -0.240436 0.26835 
809 1 -0.638821 -0.599828 -0.325895 0.93493 
497 1 -0.48466 -0.513432 0.0854991 0.711208 
4143 2 0.859711 -1.28892 -0.115717 1.55364 
3436 1 -0.23991 -0.39716 -0.549594 0.719268 
3371 1 -0.150297 -0.302803 -0.498828 0.602584 
3192 1 0.389632 0.0458633 -0.62487 0.737821 
840 1 0.0263109 -0.115816 -0.427429 0.443623 
2884 1 0.213779 -0.326371 -0.463864 0.606127 
3339 1 -0.22317 0.692425 -0.801522 1.08245 
421 1 -0.943167 1.17672 0.348476 1.5478 
854 1 -0.227942 -0.109379 0.0488937 0.257511 
863 1 0.0805531 -0.246321 -0.695991 0.742675 
699 1 0.077949 0.325423 -0.204963 0.392411 
2977 1 -0.185007 0.289354 0.578865 0.673081 
907 1 -0.186411 0.0101646 -0.274088 0.331627 
606 1 0.287422 -0.886756 -0.0829102 0.935853 
891 1 -0.263455 0.221735 0.113628 0.36261 
1641 1 -0.159461 0.442434 0.0150022 0.470533 
3586 2 0.497247 0.455158 0.273266 0.727391 
128 1 -0.346391 -0.444131 0.715673 0.910729 
1535 1 0.0195452 -0.129942 0.396995 0.418177 
3699 2 0.500072 -0.467428 -1.41715 1.57381 
1544 1 -0.352986 0.255702 0.108136 0.449083 
247 1 0.441501 0.211728 -0.421384 0.646 
1365 1 -0.109287 -0.210731 0.370343 0.439893 
1160 1 -0.0779735 -0.29207 -0.635325 0.703578 
631 1 -0.0930506 0.470252 0.184748 0.513739 
683 1 0.147658 0.0526075 0.849614 0.863953 
3704 2 -1.58836 -0.689379 0.521448 1.80832 
3600 2 -0.524957 0.126793 -0.00838402 0.540117 
1612 1 -0.12552 0.462293 0.197816 0.518267 
712 1 0.732481 -0.266123 -0.409539 0.880382 
3844 2 -0.0668282 0.893473 0.00274307 0.895973 
573 1 -0.0707129 0.646657 0.0798823 0.655399 
565 1 -0.500016 0.00688425 -0.121623 0.514641 
577 1 0.0132564 0.336968 0.379262 0.507506 
3173 1 -0.44657 0.319166 0.291069 0.6213 
4319 2 -0.17458 -0.712377 0.190196 0.757716 
3418 1 0.273938 0.440297 0.322804 0.610824 
3616 2 -0.365986 0.417577 0.645219 0.851248 
3818 2 0.283191 0.417301 -0.702692 0.864936 
8 1 0.352781 -0.215778 0.152241 0.440672 
3463 2 -0.0551918 0.618414 -0.245399 0.66761 
2057 1 -0.226929 0.166263 0.20024 0.345306 
1053 1 -0.0852323 -0.822369 -0.247823 0.863118 
1083 1 0.560995 -0.575505 -0.415807 0.904885 
655 1 -0.422765 0.0849685 -0.377908 0.57338 
621 1 -0.262124 0.0834713 -0.237468 0.363411 
555 1 -0.169783 0.476355 -0.159604 0.530296 
65 1 0.820567 -1.29052 -0.344942 1.56772 
3497 2 1.88225 -0.882988 1.53746 2.58579 
1118 1 0.716525 -0.395935 0.778803 1.12991 
617 1 0.268487 0.234232 -0.587423 0.687034 
401 1 -0.343935 0.176396 0.555777 0.676975 
740 1 -0.0507608 0.0245938 0.191734 0.199858 
3572 2 0.0255258 0.352607 0.397709 0.532124 
166 1 -1.18965 -0.168946 0.425409 1.27467 
266 1 0.967766 -0.00860183 0.121548 0.975407 
751 1 -0.201049 -0.102128 0.661289 0.69868 
1093 1 0.633548 0.929765 0.629814 1.28938 
1217 1 -0.0848384 0.186471 0.38434 0.43553 
3063 1 0.0412627 0.164067 -0.0217024 0.170562 
739 1 -0.237483 0.194766 0.182192 0.357108 
52 1 0.651876 -0.0958115 0.614158 0.900729 
959 1 -0.333061 0.0809097 0.295616 0.45262 
3687 2 -0.395076 -0.16702 0.220552 0.482311 
1934 1 0.434473 -0.439629 0.339914 0.705395 
708 1 0.113921 -0.950423 -0.128387 0.965797 
1412 1 0.546411 0.249356 0.197004 0.632103 
3957 2 -0.885174 -0.840819 -0.371031 1.276 
3589 2 0.31518 -0.0982055 0.560698 0.650665 
1059 1 -0.066077 -0.0275235 0.465332 0.470806 
3778 2 0.271573 -0.603666 1.47143 1.61347 
2768 1 0.660263 -0.145613 -0.103601 0.684021 
3459 2 0.400387 0.254564 0.912716 1.02867 