ITEM: TIMESTEP
38000
ITEM: NUMBER OF ATOMS
4320
ITEM: BOX BOUNDS pp pp pp
0.0000000000000000e+00 1.9309999999999999e+01
0.0000000000000000e+00 1.9309999999999999e+01
0.0000000000000000e+00 9.6549999999999994e+00
ITEM: ATOMS id type c_displacement[1] c_displacement[2] c_displacement[3] c_displacement[4] 
381 1 -0.0947293 -0.0516312 0.0910912 0.141198 
728 1 0.051037 -0.0704814 -0.0377671 0.0948617 
303 1 0.177287 -0.361007 -0.570958 0.698391 
2478 1 0.323642 -0.440446 0.3435 0.645546 
327 1 0.0369346 -0.0617688 0.114683 0.135394 
3611 2 0.0277364 0.100077 0.185917 0.212955 
4257 2 1.3439 0.830391 -0.152588 1.58711 
2939 1 -0.201248 -0.0847227 0.155841 0.268263 
2945 1 0.113404 0.216999 0.0764457 0.256502 
3230 1 0.271141 -0.00878617 -0.088891 0.285476 
3651 2 0.658058 -0.28025 -0.463848 0.852488 
400 1 -0.092256 0.0857179 -0.179985 0.219666 
677 1 -0.0738847 -0.0888782 0.165909 0.202198 
3712 2 0.0263493 -0.0385584 0.0522756 0.0700983 
4054 2 0.207938 -0.00850377 0.00131217 0.208116 
3514 2 0.27712 -0.223701 0.270886 0.447456 
103 1 0.0676899 -0.028898 -0.198316 0.211533 
688 1 0.41475 -0.11939 0.0229703 0.432203 
58 1 0.210591 -0.00230644 -0.479412 0.523631 
18 1 0.350055 0.487956 -0.110336 0.610585 
3618 2 0.345807 0.0809168 -0.117023 0.373931 
7 1 0.079538 -0.446382 -0.0661105 0.458207 
608 1 -0.0824263 -0.00269722 0.0901273 0.122165 
3006 1 0.165798 -0.02878 0.127049 0.210852 
190 1 -0.253882 0.0670736 -0.364789 0.449473 
106 1 -0.146909 -0.144212 0.00106158 0.205865 
217 1 0.119121 0.0893254 -0.0418225 0.154655 
775 1 0.244498 -0.00931088 -0.148537 0.286233 
3627 2 -0.127694 -0.00871108 -0.18726 0.226821 
180 1 0.0456131 -0.0220496 0.112218 0.123125 
3199 1 0.0696078 0.0454959 -0.0850617 0.118956 
3467 2 -0.386159 0.40059 0.266497 0.616938 
261 1 0.149129 -0.149507 0.0449121 0.215891 
3118 1 0.130241 0.106122 -0.0582344 0.177808 
562 1 -0.0767825 -0.04189 -0.0470215 0.0993043 
70 1 0.0232245 0.139851 0.14244 0.200965 
121 1 0.0777154 -0.0651387 -0.0358433 0.107552 
1118 1 -0.0034345 -0.17044 -3.8714e-05 0.170475 
232 1 -0.0896991 -0.0123731 0.0283712 0.0948892 
210 1 0.0908821 -0.111791 0.207016 0.252215 
298 1 0.0981198 -0.0223011 -0.248679 0.268265 
4214 2 0.180288 -0.0324831 0.188436 0.262806 
226 1 0.290209 -0.106261 0.0935882 0.322911 
532 1 0.0805608 -0.0110805 0.226751 0.240892 
3578 2 0.0395801 -0.134009 0.177462 0.225871 
473 1 0.0731967 -0.0975785 -0.0070192 0.122183 
246 1 0.00709225 0.0329535 0.175949 0.179149 
817 1 0.143067 -0.0160948 0.290763 0.324454 
289 1 0.109318 -0.205602 0.0224955 0.233941 
4071 2 -0.0277821 0.118779 0.185248 0.221805 
2838 1 -0.107759 0.162298 -0.0333722 0.197652 
536 1 0.109201 -0.0564163 -0.14941 0.193471 
894 1 -0.127974 0.0334236 -0.145677 0.196764 
351 1 -0.103415 0.0447124 -0.227927 0.254253 
3135 1 -0.0172365 0.383693 -0.104691 0.398093 
4034 2 0.323975 0.493429 0.644072 0.873648 
484 1 0.0864804 0.463404 0.388105 0.610613 
727 1 -0.1129 -0.255946 0.0572587 0.28554 
2936 1 0.102372 0.0570654 -0.0642581 0.133662 
1415 1 -0.272606 -0.0540864 0.212062 0.349585 
527 1 -0.391982 -0.0530839 -0.341881 0.522829 
3002 1 -0.0533793 0.0611623 -0.155738 0.175626 
712 1 0.044658 -0.345516 -0.0119593 0.348595 
3469 2 -0.23536 -0.248769 0.23035 0.412725 
197 1 -0.143282 0.816009 -0.0166831 0.828661 
3478 2 0.129218 0.0967738 0.160784 0.227846 
87 1 0.344446 0.45014 -0.182686 0.595519 
110 1 -0.113575 -0.251556 -0.312993 0.417306 
4177 2 0.647006 -0.455542 0.379745 0.877691 
93 1 0.204277 0.156892 -0.230668 0.345763 
569 1 0.162688 0.189363 0.256079 0.357633 
639 1 -0.0591023 0.108052 -0.0510379 0.133316 
3353 1 0.130203 -0.203107 -0.0271963 0.242786 
823 1 0.0895183 -0.0477083 -0.0637743 0.11982 
2596 1 -0.0266353 -0.00380981 0.0118459 0.0293986 
50 1 -0.00971939 -0.174544 -0.000801764 0.174816 
2495 1 0.0377921 0.00963163 -0.0636089 0.074613 
28 1 -0.0832606 0.0606143 -0.163421 0.193165 
3055 1 -0.0111856 -0.0166991 -0.160461 0.161715 
12 1 -0.0328482 0.0769915 -0.136407 0.160043 
738 1 0.0123734 -0.275973 -0.00787456 0.276362 
65 1 -0.00655201 -0.0544342 0.0215412 0.058907 
4170 2 -0.279357 -0.0969532 0.142874 0.32841 
2453 1 0.0472076 -0.108296 0.169295 0.20644 
3167 1 -0.0248081 0.00102727 0.119103 0.121664 
339 1 -0.00291855 0.20696 0.0641546 0.216695 
23 1 0.126729 -0.0543067 -0.286527 0.317974 
390 1 0.247976 -0.0670996 0.192907 0.321259 
424 1 0.168012 0.111827 -0.0159604 0.202455 
203 1 0.0472049 0.0856965 0.0802807 0.126559 
3582 2 -0.0682103 0.194671 0.0170566 0.206979 
3632 2 0.076909 0.0636322 0.0716963 0.1229 
231 1 0.0682333 -0.039022 0.249828 0.261902 
323 1 0.0403421 0.160508 0.145732 0.220518 
3244 1 0.128762 0.00640811 0.0138761 0.129666 
3251 1 -0.33398 0.0290215 -0.530899 0.627884 
2735 1 -0.133001 0.107148 -0.0425929 0.176023 
2768 1 0.134424 0.124935 -0.0991132 0.208571 
3916 2 -0.331826 -0.621181 -0.209576 0.734777 
553 1 -0.342798 0.44806 -0.500511 0.754175 
2960 1 -0.0139483 -0.067098 -0.132949 0.149573 
29 1 0.0500019 0.333653 -0.164816 0.375484 
753 1 0.157914 -0.288052 0.15248 0.362161 
155 1 -0.32019 0.041731 0.127586 0.347191 
718 1 0.109455 0.0175964 0.218462 0.244981 
437 1 0.217821 0.0297399 -0.231394 0.319177 
53 1 0.284976 0.112154 -0.394337 0.499291 
593 1 -0.230255 0.0503087 0.137798 0.273014 
609 1 0.243064 -0.0703868 -0.378063 0.454936 
3040 1 -0.126458 0.0873819 -0.190022 0.244409 
4228 2 0.0147871 0.179636 -0.317594 0.365176 
21 1 -0.110166 -0.0599231 -0.0387121 0.131248 
167 1 0.00133698 0.039647 -0.0485747 0.062715 
725 1 -0.114465 -0.00323828 0.0104678 0.114988 
610 1 -0.0684922 0.0490237 -0.0681561 0.10835 
89 1 -0.120565 -0.0617681 -0.193088 0.23587 
3149 1 -0.0968312 0.0126475 -0.00964937 0.0981292 
550 1 0.0431638 -0.182755 0.298385 0.352556 
147 1 -0.0630847 -0.0568159 -0.0444592 0.095835 
118 1 0.179778 0.0307429 0.0754646 0.197383 
1178 1 0.155346 0.0774361 -0.0414327 0.178452 
821 1 -0.692594 -0.0392971 -0.389935 0.795789 
3554 2 -0.0566002 -0.171148 -0.0752807 0.195352 
3152 1 -0.0187005 0.0516122 -0.107389 0.120607 
3786 2 -0.115263 -0.0464553 -0.153305 0.197347 
5 1 0.0124742 0.124456 -0.0589916 0.138293 
2591 1 0.0329161 0.0236697 -0.11369 0.120702 
3232 1 -0.0258146 0.112282 0.0703011 0.134966 
1215 1 0.0295952 -0.380608 -0.107903 0.396713 
859 1 0.179028 -0.117947 -0.107815 0.239972 
2461 1 -0.00495683 0.0756896 0.0754276 0.106971 
59 1 0.0579071 0.00622335 0.147725 0.158791 
988 1 -0.0216378 -0.0524568 -0.208429 0.216015 
43 1 0.155391 -0.0813761 0.172507 0.246023 
3743 2 0.0533631 0.0102423 0.167264 0.175869 
3730 2 0.155668 -0.219032 -0.210395 0.341282 
151 1 0.06925 -0.0827826 0.110723 0.154622 
3023 1 0.0479913 0.439367 -0.1386 0.463203 
3460 2 0.055579 -0.15809 -0.0418003 0.17271 
3346 1 0.134337 0.114825 0.0364622 0.180445 
1454 1 -0.182508 0.0509613 0.032855 0.192316 
4289 2 -0.0429336 0.175121 0.117434 0.215178 
623 1 0.0132224 0.0441818 -0.20666 0.211744 
3586 2 0.0505859 -0.110632 0.0923409 0.152726 
96 1 0.0572395 -0.0980126 -0.120842 0.165788 
4053 2 0.201747 0.00790683 -0.333392 0.389762 
3196 1 -0.0818292 -0.332873 -0.587629 0.680301 
354 1 0.19449 0.053328 0.200868 0.284637 
737 1 0.153391 -0.0929005 -0.509338 0.539986 
568 1 0.1647 -0.0776355 0.114028 0.214839 
10 1 0.279269 -0.374121 -0.389547 0.608033 
221 1 -0.223541 0.0726724 0.0476026 0.239829 
389 1 0.244318 -0.226105 0.112874 0.351504 
3303 1 0.131293 0.31077 -0.0254589 0.338326 
1133 1 0.0643112 -0.0512235 -0.000748491 0.0822213 
233 1 0.124187 0.197958 0.163902 0.285436 
3679 2 -0.926096 -0.123066 -0.0308839 0.934747 
2500 1 -0.0205821 -0.0437275 -0.0964255 0.107859 
3188 1 -0.0426086 0.506002 -0.0815417 0.514299 
691 1 0.0360889 -0.267207 -0.0395489 0.272518 
529 1 -0.300142 -0.129536 -0.271072 0.424671 
140 1 -0.0914419 -0.0363334 0.20629 0.228554 
825 1 0.00109619 0.356779 -0.0614995 0.362042 
154 1 -0.00842885 -0.0229803 -0.0883585 0.0916863 
143 1 0.0778452 -0.00458964 0.00958747 0.0785676 
559 1 -0.0799498 -0.100443 -0.166048 0.209888 
3464 2 -0.30236 -0.691718 -0.0711348 0.758258 
1480 1 -0.210011 -0.242767 0.222892 0.390795 
2968 1 0.329169 -0.192034 0.0932583 0.392335 
1331 1 -0.215368 0.0140798 -0.0170356 0.216499 
98 1 0.333168 -0.223 -0.0177678 0.401304 
40 1 -0.137381 0.0407303 -0.107721 0.179266 
1130 1 0.0120465 -0.0525427 -0.0788288 0.0954978 
78 1 0.121183 0.0616999 0.027327 0.138705 
3041 1 -0.00849716 -0.329644 -0.239633 0.407629 
604 1 0.258124 0.0433025 -0.372008 0.454854 
721 1 0.0860248 -0.03448 -0.382501 0.393569 
4094 2 0.521382 -0.461531 -0.869455 1.11391 
3164 1 0.0679392 0.0621556 -0.0931862 0.131007 
241 1 -0.075445 0.0133327 -0.00449794 0.076746 
3078 1 0.0463267 0.0243642 -0.0033905 0.0524526 
64 1 -0.0177092 -0.119069 -0.16747 0.206245 
193 1 0.135053 -0.00791164 -0.0861832 0.160404 
2996 1 0.0396032 -0.0414346 -0.0712384 0.0914338 
4212 2 0.0232491 -0.00787418 -0.129263 0.131573 
44 1 0.174559 0.096285 -0.0108778 0.199649 
3279 1 0.0276782 -0.18048 -0.0236109 0.18411 
95 1 -0.0554051 -0.063568 0.175674 0.194864 
330 1 -0.0153947 0.249057 0.102494 0.269762 
600 1 -0.0815036 -0.0201298 0.00396309 0.0840461 
338 1 0.0868592 -0.308316 -0.177264 0.366095 
4101 2 0.069041 -0.0268438 0.162642 0.178717 
3841 2 -0.127865 0.0934911 0.0624087 0.17025 
1179 1 0.15671 0.111401 -0.134001 0.23436 
3096 1 -0.194007 0.00977756 -0.023886 0.195716 
685 1 -0.163304 0.0651666 -0.0378543 0.179855 
920 1 0.155871 0.085466 -0.0036129 0.177801 
4217 2 -0.291938 -0.288178 0.162928 0.441384 
479 1 -0.100255 -0.01123 0.0841675 0.131382 
3335 1 -0.0615986 0.0216002 0.164317 0.176808 
1457 1 -0.00767814 -0.0838225 0.129419 0.154384 
3037 1 0.0940067 0.117398 -0.00679065 0.150551 
4253 2 0.114274 0.0487196 0.0798088 0.147654 
387 1 0.0608913 -0.014813 0.021416 0.0662255 
3736 2 -0.0753758 0.281625 0.0629961 0.298266 
174 1 -0.1125 -0.0719069 -0.169943 0.216119 
717 1 -0.107873 -0.245169 0.227474 0.35141 
3130 1 0.0103998 -0.0790606 -0.0209742 0.0824539 
508 1 -0.0145883 -0.192501 0.151311 0.245284 
3537 2 0.137262 -0.154688 -0.0622399 0.21597 
747 1 -0.168079 -0.0140409 0.142649 0.220899 
497 1 0.0760382 -0.151677 0.278318 0.325958 
958 1 -0.0595818 -0.402734 0.0836424 0.415621 
4163 2 -0.0100693 -0.13966 0.224853 0.264888 
3608 2 0.155628 -0.0193162 0.0662914 0.170258 
133 1 -0.079817 0.00730392 -0.0191253 0.0824007 
3003 1 -0.112293 0.00367095 -0.10085 0.150977 
580 1 0.0275498 0.0315745 0.211702 0.215809 
4204 2 -0.0810506 -0.0489866 -0.0639278 0.114261 
86 1 0.295085 -0.00968212 -0.0450375 0.298659 
759 1 -0.125532 -0.25211 -0.0970277 0.297879 
3411 1 -0.137474 -0.0794136 0.138146 0.210452 
835 1 -0.518577 0.307208 -0.062412 0.605965 
3057 1 0.451445 -0.00940867 -0.0329169 0.452741 
3620 2 -0.0706995 0.730092 0.166978 0.752273 
704 1 -0.126566 0.410859 -0.242054 0.49337 
157 1 -0.0486232 0.145546 -0.0547657 0.162933 
54 1 -0.231923 0.0432043 -0.386339 0.452673 
493 1 0.0494131 0.220013 -0.0550854 0.232125 
3599 2 -0.102508 0.30597 -0.144444 0.353538 
204 1 -0.0783212 0.0148459 -0.190567 0.206568 
254 1 0.0591132 0.147568 -0.197269 0.253349 
178 1 0.166734 -0.0772486 -0.136646 0.228997 
67 1 0.107553 0.101405 -0.0238322 0.149728 
2988 1 0.00945655 0.187212 -0.112122 0.218424 
3030 1 -0.154284 0.173789 -0.130651 0.266601 
949 1 -0.0649483 -0.0472178 0.0805819 0.11376 
3518 2 -0.1243 0.164068 0.0795995 0.220692 
3512 2 -0.0297669 0.053994 -0.0746503 0.0968199 
3216 1 -0.028104 0.141182 0.0810266 0.165189 
1036 1 0.0990079 -0.135372 -0.0651012 0.179907 
3479 2 0.0766612 0.510796 -0.041572 0.518187 
234 1 0.041536 -0.0316445 -0.0583332 0.0782903 
3369 1 0.0677114 0.0489552 0.186978 0.204798 
3607 2 -0.099735 -0.150384 0.237142 0.297991 
3139 1 0.11057 0.0875725 -0.012795 0.141628 
644 1 -0.158675 -0.0979157 0.0414979 0.191017 
1278 1 0.136282 0.0888965 -0.0864586 0.184256 
4269 2 -0.0273317 0.138252 0.30068 0.332068 
214 1 0.0702726 0.0614636 0.109645 0.144007 
640 1 0.0174296 0.11032 0.246483 0.270607 
199 1 0.000496421 -0.0117793 0.0678074 0.0688247 
245 1 -0.0157883 -0.014758 0.211531 0.212632 
2758 1 -0.178023 0.136799 0.156567 0.273714 
3056 1 -0.117942 0.0556319 0.143925 0.194216 
3468 2 -0.0321715 0.0124657 0.0659284 0.0744107 
4089 2 0.0939733 0.100985 0.107045 0.174607 
563 1 -0.0436577 0.0870692 -0.0117312 0.0981053 
3211 1 0.313425 0.0330141 0.0410513 0.317821 
1102 1 0.0458975 0.458906 -0.623181 0.775278 
2684 1 -0.415776 0.140921 -0.277546 0.519385 
181 1 -0.112643 -0.0453165 0.0890663 0.150581 
46 1 -0.0270209 -0.130161 0.124488 0.182125 
3603 2 0.044072 -0.364884 0.159529 0.400665 
257 1 -0.0138294 -0.0464829 -0.162644 0.16972 
4050 2 0.18007 0.291438 -0.0864183 0.353312 
240 1 0.0245419 0.441054 -0.277213 0.521515 
446 1 0.155668 -0.0100084 0.110145 0.190957 
312 1 0.535288 0.0458401 -0.484836 0.723671 
135 1 -0.161044 -0.126126 -0.168238 0.264852 
66 1 0.0148366 -0.199387 -0.636901 0.667547 
3701 2 -0.0193395 0.113795 0.120472 0.166843 
3513 2 -0.148749 -0.246157 -0.686547 0.744357 
587 1 -0.0671316 0.0300279 0.000684056 0.0735445 
2931 1 -0.0461024 -0.0375406 0.142973 0.154842 
134 1 0.111476 0.214747 -0.0131476 0.242314 
2995 1 -0.0602242 -0.066645 -0.198415 0.2178 
195 1 -0.115617 0.106996 -0.120101 0.19809 
216 1 -0.0469764 -0.148786 0.0138267 0.156638 
191 1 0.0600785 0.0758242 0.0218053 0.0991676 
3092 1 -0.0825999 -0.0313088 -0.150216 0.174263 
4195 2 -0.0829578 -0.0453959 -0.173935 0.19798 
602 1 -0.111379 0.1163 -0.0817318 0.180585 
176 1 0.175164 0.100155 0.0202199 0.202786 
80 1 -0.0967512 -0.0299125 0.103577 0.144858 
674 1 0.0506878 0.0601142 -0.102901 0.129505 
540 1 -0.116775 0.0905955 -0.247138 0.28796 
2004 1 -0.218152 -0.125355 0.0734054 0.262092 
182 1 -0.00478896 -0.0564648 -0.221856 0.228979 
4173 2 -0.0272496 -0.0541682 -0.187957 0.197496 
2950 1 -0.0769302 -0.0267873 -0.101776 0.130361 
6 1 -0.134369 0.0561555 -0.126132 0.19266 
427 1 0.0751792 0.10327 0.00202113 0.127752 
131 1 0.0420576 0.0829314 0.0861754 0.126778 
690 1 0.212383 0.0196383 -0.0350624 0.216152 
902 1 0.178005 0.159708 0.135249 0.274745 
1149 1 0.0897045 -0.124564 0.21289 0.26246 
2926 1 -0.0664493 -0.143182 0.093653 0.183541 
742 1 0.0669996 0.00433023 -0.173733 0.186255 
710 1 -0.0678174 -0.111036 -0.220909 0.256376 
551 1 -0.185267 -0.162264 -0.0436627 0.25012 
3408 1 -0.0595616 0.032268 0.140165 0.155676 
2977 1 0.110971 0.00133568 0.0235583 0.113452 
215 1 0.0923113 0.123085 -0.0283697 0.156448 
3007 1 -0.0563369 0.0183072 0.122113 0.135722 
3394 1 -0.0278217 -0.168701 -0.0965548 0.196359 
3115 1 -0.175711 0.100062 -0.0566782 0.209998 
3010 1 -0.0107403 0.0816892 -0.0597762 0.101792 
3643 2 0.132886 0.0536842 -0.0558485 0.153818 
2994 1 0.0829915 0.0932473 0.0090339 0.125157 
3491 2 -0.310867 0.367575 -0.458522 0.664825 
205 1 -0.400994 -0.000977321 0.145825 0.426687 
694 1 -0.302953 0.198404 0.261482 0.446674 
861 1 -0.316496 -0.0529751 0.126725 0.345014 
3549 2 -0.275572 -0.14726 0.0603035 0.318217 
1077 1 -0.104618 0.0296743 0.218252 0.243843 
3401 1 -0.0885951 -0.0361987 0.12136 0.154556 
3785 2 -0.203888 0.0446094 -0.112584 0.23714 
3631 2 0.00974182 0.162468 -0.0364022 0.166781 
2873 1 0.203029 -0.396075 0.299165 0.53628 
433 1 -0.117897 -0.0076371 0.106674 0.159177 
3341 1 -0.268941 0.112625 0.0688404 0.299588 
512 1 0.141424 0.120081 0.193954 0.2684 
300 1 -0.0681097 0.0697683 0.181204 0.20577 
393 1 -0.140128 -0.00182394 0.00596059 0.140266 
2740 1 0.0828431 0.264048 0.114543 0.299507 
286 1 -0.0718909 0.0542706 0.20193 0.221109 
4154 2 -0.23195 0.269391 -0.0485995 0.358795 
2861 1 -0.888842 0.914057 -1.24973 1.78532 
277 1 -0.140001 -0.076107 0.124097 0.201972 
364 1 -0.133169 0.0252535 0.143059 0.197073 
1367 1 0.00396878 0.0309832 0.0270031 0.0412902 
411 1 -0.180232 0.103748 0.216478 0.300183 
4006 2 -0.504029 -0.43971 0.371684 0.765205 
356 1 0.0353207 0.00467319 0.130139 0.134928 
635 1 -0.158218 -0.00216001 0.0158751 0.159027 
3393 1 -0.189186 0.017133 0.180849 0.262281 
3094 1 0.101143 -0.0409937 0.0652903 0.127174 
3389 1 0.0269753 -0.0719148 -0.0473581 0.0902341 
966 1 -0.0582489 -0.0088065 0.284248 0.290289 
357 1 -0.306073 0.0635573 0.128426 0.337955 
362 1 0.0687065 0.17291 0.198741 0.272243 
478 1 -0.0844081 0.233057 0.0117074 0.248148 
4159 2 -0.0622788 0.130655 0.240843 0.280988 
3319 1 -0.0492241 -0.320859 0.150274 0.357709 
2696 1 0.0378852 0.129397 -0.0175594 0.135968 
309 1 0.106027 0.0828074 -0.0757316 0.154383 
92 1 -0.432654 -0.645926 -0.0648655 0.780139 
780 1 -0.161645 0.112263 -0.264455 0.32965 
924 1 0.210743 -0.0523325 0.348075 0.410253 
2710 1 0.0538806 0.306428 -0.345168 0.464696 
3313 1 -0.0575362 0.165132 0.0905873 0.196939 
3588 2 0.14871 -0.90724 -0.560307 1.07664 
4239 2 0.665722 1.2829 -0.379672 1.49438 
614 1 0.173888 0.218714 0.116964 0.302909 
306 1 -0.222746 0.0909762 -0.13964 0.278194 
3612 2 0.0523872 0.285087 0.243829 0.378776 
384 1 0.438068 0.192881 -0.263501 0.546387 
3392 1 0.0537078 0.162224 0.0468072 0.177178 
3333 1 -0.103716 0.302277 -0.323238 0.454545 
3249 1 -0.170841 0.308512 -0.107465 0.368667 
3379 1 -0.080491 0.0980419 0.360763 0.382415 
903 1 -0.0300162 -0.219911 0.00795739 0.222092 
1449 1 0.040725 -0.164953 -0.0866432 0.190723 
3197 1 -0.180648 0.149672 0.0579797 0.241655 
3350 1 -0.41332 1.21128 0.696274 1.45699 
100 1 0.020254 0.0410187 -0.0318781 0.0557581 
462 1 -0.064726 -0.0364519 0.328251 0.336551 
2966 1 0.0218114 0.0149014 0.0106039 0.0284645 
750 1 -0.00953076 -0.00310364 0.070876 0.0715813 
3162 1 -0.158752 0.101394 -0.034096 0.19143 
3022 1 -0.00445449 0.151663 0.00588386 0.151842 
3095 1 -0.0414242 0.254842 -0.146379 0.296795 
449 1 0.0237831 0.184031 0.0400431 0.189833 
838 1 0.0329693 0.201051 0.127602 0.240397 
3305 1 0.0962033 0.212322 0.151088 0.277782 
886 1 0.027843 0.059201 0.291937 0.299177 
287 1 -0.13649 -0.140955 0.118213 0.229068 
3209 1 -0.0127212 0.118781 0.0389365 0.125645 
3409 1 0.0940162 0.0344386 0.114227 0.151897 
3647 2 -0.123623 0.240371 0.0644151 0.277867 
2890 1 0.142655 0.239222 0.150759 0.316711 
1285 1 -0.00315958 0.356811 0.334302 0.48896 
943 1 0.0481083 0.0747217 0.206768 0.225057 
2732 1 0.0335273 0.0629586 0.0870675 0.112555 
4318 2 -0.0701803 0.120158 0.167686 0.217903 
3404 1 0.0636406 0.0573375 -0.0243854 0.0890638 
3883 2 0.175069 0.179011 0.144543 0.289114 
3227 1 -0.025572 -0.0333151 -0.00245963 0.0420698 
373 1 0.0313267 0.134667 0.0183486 0.139475 
4297 2 0.00961343 0.142142 -0.107768 0.178635 
398 1 0.0504094 -0.034098 -0.0199695 0.0640512 
3531 2 -0.043936 0.149362 -0.0529871 0.16446 
3808 2 0.0104423 0.0195704 0.147145 0.148807 
3221 1 -0.0207394 0.211714 0.142196 0.255877 
394 1 -0.0171895 0.278907 0.0962012 0.295532 
412 1 -0.0871898 0.0763177 -0.00150126 0.115882 
836 1 -0.142231 -0.0439212 0.174101 0.229063 
3573 2 -0.0937644 -0.0340166 -0.0566674 0.114717 
392 1 -0.0473529 -0.0397018 -0.0508119 0.0800024 
2365 1 -0.0562297 -8.3507e-06 -0.164769 0.174099 
3360 1 -0.051225 0.146403 0.0693747 0.169914 
3093 1 -0.474436 0.281346 -0.139318 0.568906 
3097 1 -0.180902 0.254409 -0.436979 0.537029 
3324 1 0.280784 -0.22212 0.189574 0.405112 
951 1 -0.130478 -0.0736525 -0.101246 0.180831 
2745 1 0.0948977 0.181539 0.0550045 0.212103 
228 1 0.137522 -0.202459 0.125529 0.275063 
2737 1 -0.0659027 -0.155347 -0.00112985 0.168751 
2959 1 0.261382 -0.164786 0.165531 0.350536 
3337 1 0.252059 -0.109195 0.109151 0.295586 
3483 2 0.157327 -0.0567331 -0.0573305 0.176797 
3290 1 0.014131 0.0979439 -0.0739094 0.123512 
4284 2 -0.0810078 0.669004 0.502623 0.840689 
3535 2 0.110104 -0.0140101 -0.151071 0.187461 
601 1 0.0219277 0.151319 0.0561431 0.162881 
3617 2 0.268401 -0.0729834 0.0805074 0.289564 
206 1 0.0860957 0.0671783 0.0275111 0.112615 
71 1 0.152803 0.120838 0.00992474 0.195061 
716 1 0.129779 0.119255 -0.0576428 0.185438 
4185 2 0.110901 -0.0760068 0.0170372 0.135522 
353 1 0.0305281 -0.0270579 0.0684455 0.0796799 
2961 1 -0.45059 0.0080646 -0.128914 0.468738 
4014 2 -0.106491 -0.0860587 0.0186367 0.13818 
1324 1 0.0282765 0.159457 0.158296 0.226459 
3561 2 0.105635 0.151057 0.0237715 0.185855 
3676 2 0.253551 0.0875677 0.155434 0.310026 
1313 1 0.0714336 0.104395 -0.0438638 0.133885 
388 1 0.0218332 0.202548 0.221098 0.300643 
3668 2 0.119885 0.24783 0.267653 0.383966 
482 1 0.0650272 -0.0432919 -0.0404283 0.0879612 
460 1 0.168782 -0.00885845 0.0671578 0.181869 
499 1 0.0757873 0.069028 0.12636 0.162713 
444 1 0.0992474 0.187656 0.0692006 0.223279 
2479 1 0.101137 0.261118 -0.00790967 0.280132 
3150 1 0.264009 1.10501 -0.553994 1.26399 
3482 2 -0.318167 -0.117057 0.0996236 0.353352 
3548 2 -0.167357 0.397233 0.185905 0.469428 
291 1 0.0899959 0.106835 0.089294 0.16579 
1314 1 0.092587 0.208022 0.181638 0.291269 
3672 2 0.188045 0.11799 -0.029588 0.22396 
375 1 0.109676 0.0538051 -0.146736 0.190933 
94 1 -0.136071 0.439241 -0.0519078 0.462756 
37 1 0.0188313 -0.159282 0.180773 0.241669 
4309 2 -0.260214 -0.0287836 0.0716348 0.271425 
3678 2 -0.223344 0.0671502 0.393059 0.457042 
3526 2 0.0783223 0.0880597 -0.283367 0.306897 
1212 1 -0.145573 0.117754 0.172032 0.254269 
901 1 -0.126871 0.0628475 0.12325 0.187714 
436 1 0.103196 0.145317 -0.00774181 0.1784 
792 1 -0.0616418 -0.222146 -0.0122333 0.230864 
3293 1 0.117616 0.0759648 0.239565 0.277481 
3314 1 0.0300683 -0.264476 0.0564975 0.27211 
3320 1 -0.250731 -0.429798 0.254465 0.558878 
3180 1 -0.178892 -0.185377 0.156602 0.301482 
3013 1 0.717565 0.229727 -0.672068 1.00963 
3546 2 -0.615333 -0.355804 -0.533016 0.888447 
355 1 -0.341465 -0.00494776 0.496416 0.602538 
318 1 -0.0230529 0.0823248 0.0148442 0.0867708 
490 1 0.207434 -0.286581 -0.51379 0.623809 
4271 2 0.152084 0.10297 0.0971278 0.207765 
1172 1 0.103036 -0.0793149 0.0477376 0.138514 
652 1 0.134248 -0.0628927 -0.00887179 0.148515 
3568 2 0.0688398 -0.0472685 0.0201865 0.0859111 
3560 2 0.180561 -0.100112 0.0271252 0.208232 
3419 1 0.062353 0.0420689 0.0764738 0.107266 
248 1 0.154879 0.0181165 0.122772 0.198466 
3433 1 0.221487 -0.0375492 0.0493517 0.230005 
771 1 -0.135471 0.112294 0.237879 0.295886 
4143 2 -0.079257 -0.13336 -0.107939 0.18899 
325 1 0.196336 0.00178716 0.122535 0.231443 
292 1 0.159102 -0.0330892 0.0640875 0.174687 
3444 1 0.177041 -0.163906 0.129135 0.27365 
908 1 0.166702 -0.117707 0.123604 0.238585 
3504 2 0.238435 -0.112497 0.107355 0.284661 
502 1 0.103185 -0.0432377 0.0712311 0.132629 
3435 1 0.0331673 -0.0746074 0.23089 0.244901 
349 1 -0.0106757 0.0332554 0.0609345 0.0702346 
4182 2 -0.0119508 -0.293329 -0.0132135 0.293869 
3331 1 0.0303439 -0.0896786 0.0905849 0.131029 
874 1 -0.0625641 -0.212007 0.2511 0.334533 
980 1 -0.0216026 -0.139981 0.328082 0.35735 
225 1 -0.177758 -0.192112 0.13131 0.292826 
439 1 -0.0372765 0.147562 0.0618327 0.164279 
1442 1 -0.0355252 -0.268539 0.263023 0.377566 
810 1 0.048325 -0.151301 0.216693 0.268669 
2869 1 -0.0727581 -0.221262 0.145703 0.274737 
483 1 0.0242127 -0.0999626 0.0281456 0.106635 
4280 2 0.29539 0.244206 -0.294864 0.483566 
416 1 -0.00598952 -0.141004 0.240156 0.278555 
365 1 0.172834 -0.0971651 0.00890698 0.198474 
3799 2 -0.0483263 -0.174502 -0.171072 0.249102 
2819 1 0.0337501 -0.093652 0.0965914 0.138707 
382 1 -0.0714621 0.142392 -0.0784554 0.177588 
295 1 0.102423 -0.215131 -0.187754 0.303353 
2776 1 -0.102372 -0.0089054 0.0834691 0.132387 
3291 1 0.21195 -0.279498 0.0175028 0.35121 
3383 1 0.0642618 0.0520952 0.112389 0.139552 
957 1 0.198489 -0.0595557 -0.255031 0.328611 
795 1 0.377238 -0.268626 0.0927097 0.472296 
2973 1 -0.185581 0.109865 -0.0530532 0.222093 
4256 2 -0.376486 -0.705742 0.0124621 0.79998 
783 1 -0.533659 -0.0131543 0.234542 0.583073 
474 1 -0.093522 -0.00153043 -0.483846 0.492804 
3070 1 0.295352 -0.00379317 -0.0445131 0.298712 
3312 1 0.120767 -0.0460413 0.134157 0.186286 
423 1 0.153507 -0.0761178 0.0395815 0.175855 
1337 1 0.124889 -0.101014 -0.00451989 0.160691 
496 1 0.167631 0.293528 0.0649163 0.344199 
2993 1 -0.513586 0.226199 -0.141952 0.578866 
517 1 0.0897339 0.0783306 -0.0548114 0.131119 
279 1 -0.183583 0.279248 -0.22918 0.405223 
4285 2 -0.0399355 -0.12015 -0.0634495 0.141622 
308 1 0.0160931 -0.00706157 -0.0587257 0.061299 
471 1 0.0329297 0.363526 0.0327799 0.366484 
917 1 0.0390938 -0.0914117 -0.00881065 0.0998101 
4028 2 -0.107635 0.140016 0.161537 0.239341 
3322 1 -0.0257529 0.189991 0.148473 0.242495 
3863 2 -0.15601 -0.0383558 0.11484 0.197481 
274 1 0.0440042 -0.0460131 -0.0374626 0.0738717 
1091 1 0.0480697 0.00501823 0.117594 0.127139 
3396 1 0.0361615 0.0298903 0.145984 0.153338 
329 1 -0.247456 0.0847322 -0.0630774 0.269059 
2545 1 -0.0971692 -0.0424431 -0.0530847 0.11858 
3327 1 -0.0782862 -0.103668 0.0691908 0.147184 
3674 2 0.0735054 0.119509 0.280659 0.313775 
1418 1 0.154193 -0.00613635 0.0995668 0.183649 
443 1 -0.137076 0.0397148 0.0289526 0.14562 
855 1 0.00351124 -0.0818326 0.0829675 0.116587 
3476 2 -0.0147739 -0.0761678 0.0846194 0.114805 
3434 1 0.046045 -0.0978095 0.0676821 0.127545 
4307 2 -0.0475512 -0.111838 0.0822582 0.146749 
177 1 0.0816897 0.0266821 0.0625285 0.106278 
363 1 -0.055156 -0.254824 0.0671657 0.269237 
1450 1 -0.0431233 -0.0492836 0.130277 0.14581 
3559 2 -0.0733153 0.134342 0.215711 0.264488 
319 1 -0.103855 -0.0418962 -0.013622 0.112812 
4237 2 0.109962 -0.126224 0.137127 0.216398 
347 1 0.00207957 -0.0258572 0.0682464 0.0730102 
875 1 0.0474645 0.0270778 0.196036 0.20351 
830 1 -0.0815766 -0.0282488 -0.149373 0.172525 
937 1 -0.200145 -0.0832116 0.0909552 0.235064 
854 1 0.0385674 0.129037 -0.0576185 0.146485 
442 1 -0.031746 -0.176325 -0.0977571 0.204095 
314 1 -0.0132536 -0.0813722 0.0573638 0.100438 
268 1 -0.00100341 0.0175215 0.143157 0.144228 
501 1 -0.000820321 -0.0870238 0.320551 0.332154 
863 1 0.0374228 -0.270269 0.0824948 0.285046 
964 1 -0.0521183 0.0813399 -0.295945 0.311314 
793 1 0.00717798 -0.150221 -0.157043 0.217441 
3397 1 -0.00820249 -0.0480733 -0.262022 0.266522 
419 1 0.381563 -0.263804 0.226038 0.51602 
3266 1 0.344803 0.131819 -0.189134 0.414774 
819 1 -0.0977103 -0.198762 0.134032 0.258879 
3378 1 0.118673 0.271212 0.00845387 0.29616 
822 1 0.171891 -0.118787 0.150463 0.25748 
3544 2 -0.0456602 -0.00269752 -0.021178 0.0504047 
1430 1 0.0331421 -0.0790836 -0.0921472 0.125872 
3200 1 0.0521721 0.149699 0.109732 0.192803 
757 1 -0.000784223 -0.0518981 -0.0371459 0.0638267 
1254 1 -0.0542039 0.0341476 0.0227848 0.0679946 
699 1 -0.123213 0.0807939 0.0825486 0.168889 
781 1 0.13674 -0.245702 -0.0332431 0.283147 
275 1 0.168702 0.148011 -0.00818857 0.224576 
85 1 0.0492914 -0.0345785 0.267464 0.274157 
3240 1 -0.34377 -0.0734466 0.0998355 0.36543 
113 1 0.0426861 0.10306 0.195621 0.225191 
504 1 -0.174141 -0.0307524 0.336575 0.380201 
2795 1 -0.268603 -0.0987292 0.285134 0.403976 
4098 2 -0.037952 -0.00309652 0.317026 0.319304 
491 1 -0.12186 0.0422252 0.0592713 0.141936 
3545 2 0.0275783 -0.000251257 -0.0189141 0.0334421 
581 1 -0.269832 0.0250736 0.175902 0.323078 
3541 2 -0.000377806 0.0204091 0.177332 0.178503 
786 1 0.0588091 -0.0611112 0.131105 0.156147 
800 1 0.0671173 -0.238193 0.172511 0.301663 
367 1 0.0599046 -0.0926638 0.179665 0.210843 
2687 1 0.0677964 -0.0947288 0.140205 0.182284 
430 1 -0.241929 -0.149789 0.163514 0.328181 
3278 1 0.0742073 -0.0879582 -0.263136 0.2872 
2814 1 0.0334272 0.040877 -0.0358318 0.063814 
1723 1 0.0030054 0.00920941 0.0326239 0.0340318 
3264 1 0.155632 -0.297075 0.21525 0.398506 
440 1 -0.246313 0.0607094 0.261284 0.364177 
801 1 -0.216055 -0.0621955 0.118578 0.254183 
31 1 -0.19515 0.104101 -0.179771 0.285023 
1304 1 0.146187 -0.073009 0.072055 0.178585 
899 1 0.213047 -0.121641 -0.175655 0.301729 
404 1 -0.0266489 -0.111831 -0.178023 0.211916 
431 1 -0.0825734 0.0230369 0.195237 0.213229 
968 1 -0.0808225 0.0027257 0.121076 0.145599 
2656 1 -0.0649101 -0.0221629 0.00187547 0.0686151 
421 1 -0.22036 0.0301785 0.0563564 0.229445 
4152 2 -0.0773133 -0.0430342 0.0198191 0.0906757 
3281 1 0.0412142 0.00843099 0.328411 0.331094 
486 1 0.0460431 0.0839488 -0.209352 0.230207 
3371 1 0.00323622 0.050286 -0.344352 0.34802 
2884 1 -0.0358792 -0.138963 -0.123394 0.189272 
3192 1 0.146058 -0.0486062 -0.469949 0.494517 
840 1 -0.00713689 0.0154884 -0.32823 0.328672 
461 1 -0.00347965 0.141279 -0.0774855 0.16117 
3339 1 -0.0412851 0.104677 -0.0955284 0.147606 
3436 1 -0.0892874 -0.138218 -0.135427 0.213112 
307 1 -0.215139 -0.0580355 -0.0632374 0.231628 
647 1 0.21555 0.231666 -0.0763256 0.325509 
107 1 -0.111158 0.141724 -0.0585428 0.189392 
402 1 0.138105 -0.131246 0.0236159 0.191979 
187 1 -0.0144826 0.0387387 0.253771 0.257119 
4298 2 -0.0297205 0.222398 0.0973252 0.244574 
4264 2 0.386319 0.02156 0.118137 0.404554 
249 1 -0.149476 -0.335414 0.324998 0.490376 
3380 1 0.10434 0.049353 0.158193 0.195825 
160 1 0.191258 0.0967457 0.508254 0.551599 
1354 1 0.212511 -0.316881 0.207326 0.434234 
208 1 -0.0540278 -0.0909616 -0.222643 0.246502 
128 1 -0.10011 0.0250635 -0.0674471 0.123285 
907 1 0.0575233 -0.0549041 -0.00426129 0.0796339 
1641 1 -0.0616065 0.128637 -0.123385 0.188591 
1544 1 0.0233754 0.0326931 0.0134666 0.0423863 
1535 1 0.0806431 -0.0746629 0.0193779 0.111595 
865 1 0.0831167 0.0185989 0.0984234 0.130159 
891 1 -0.0502573 0.0150664 0.0175135 0.0553129 
606 1 0.106354 -0.0675225 0.079967 0.149215 
573 1 -0.000486525 0.0434886 0.0961125 0.105495 
3844 2 0.0953098 -0.0691316 -0.00929192 0.118108 
631 1 0.101379 0.0910733 0.0478552 0.144437 
3600 2 0.154183 0.184786 -0.0694516 0.250483 
1109 1 -0.231365 0.229537 0.0870081 0.337324 
3687 2 -0.241939 -0.031521 0.177507 0.301723 
2057 1 -0.0693586 -0.0703086 0.280848 0.297707 
1474 1 -0.0579793 0.0736727 0.178683 0.201784 
63 1 -0.0920238 0.050737 0.0267859 0.108444 
577 1 -0.0883977 0.113255 0.133166 0.195893 
565 1 -0.0822719 0.0801358 0.160488 0.19735 
3616 2 -0.0640288 0.169276 0.0364458 0.184614 
3418 1 -0.158023 -0.111702 0.057846 0.201977 
4176 2 -0.112839 0.0545968 0.213502 0.247581 
69 1 -0.0893259 -0.00792684 0.120777 0.150429 
797 1 -0.197434 0.166808 0.146652 0.297173 
516 1 -0.0334699 0.0786009 0.0511609 0.0995779 
172 1 -0.177537 0.141968 0.0664159 0.236824 
4319 2 -0.0572314 0.11069 0.0484038 0.133681 