ITEM: TIMESTEP
6400000
ITEM: NUMBER OF ATOMS
4320
ITEM: BOX BOUNDS pp pp pp
0.0000000000000000e+00 1.9309999999999999e+01
0.0000000000000000e+00 1.9309999999999999e+01
0.0000000000000000e+00 9.6549999999999994e+00
ITEM: ATOMS id type c_displacement[1] c_displacement[2] c_displacement[3] c_displacement[4] 
1102 1 0.841764 -0.519886 1.06585 1.45426 
2985 1 1.25348 0.297377 -0.787232 1.50976 
171 1 2.28287 -0.301228 -1.10726 2.55505 
342 1 3.94577 0.166604 1.10798 4.10176 
53 1 -0.070714 -0.370558 -2.32114 2.35159 
2540 1 4.00239 0.175682 -1.21353 4.186 
4097 2 1.0262 2.49956 -1.17197 2.94523 
4163 2 -0.0333794 -0.451459 2.16312 2.20998 
134 1 -0.549544 -1.03421 1.69482 2.0601 
1991 1 0.455401 0.140848 1.12599 1.22274 
66 1 0.902621 -0.661875 0.751227 1.34802 
4177 2 0.562054 -1.46017 -1.28977 2.02768 
2939 1 0.37407 0.683029 1.40738 1.60847 
381 1 0.106259 0.92016 -0.308928 0.976434 
3196 1 -1.13244 0.475328 -0.622938 1.3771 
722 1 -0.757069 -0.505753 -1.31213 1.59707 
685 1 -0.75595 -0.173876 0.707824 1.0501 
4169 2 -2.05977 -2.15437 -3.62503 4.69306 
400 1 -0.0248767 1.22475 0.732324 1.42721 
69 1 -2.22282 0.833575 -0.771971 2.49634 
727 1 -0.835049 0.807461 -0.769452 1.39333 
1415 1 0.246995 1.0967 -0.487682 1.2254 
2530 1 2.10103 1.21683 1.68049 2.9528 
167 1 1.0452 0.859412 -2.45971 2.80734 
129 1 0.947255 -1.0269 -0.00733314 1.39709 
608 1 -0.0783508 0.427911 -0.48475 0.651329 
81 1 -1.82383 0.689864 1.68163 2.57491 
1178 1 1.30452 2.13362 -0.77294 2.61755 
2979 1 -0.767133 0.122316 -1.28758 1.50377 
2056 1 1.33446 -0.749871 -0.786127 1.72078 
182 1 -0.509371 1.75161 0.781785 1.98464 
106 1 0.102381 1.1619 -0.0680424 1.16838 
1271 1 -1.09274 0.392373 -2.00639 2.31811 
215 1 -0.814883 -0.291044 0.689757 1.10657 
3457 2 2.04892 0.626305 -2.47886 3.27644 
2453 1 -0.36651 0.888219 -1.32217 1.63444 
3232 1 -0.954492 1.37374 -1.94212 2.56321 
255 1 0.032062 1.75421 -0.617732 1.86007 
3731 2 -5.07183 3.48369 2.04973 6.48544 
532 1 0.0946876 -0.372812 0.359726 0.526647 
80 1 -1.57874 0.479648 1.63229 2.32096 
231 1 1.0139 -0.475369 -0.33366 1.16846 
121 1 2.02858 2.54653 -0.670543 3.32409 
3024 1 0.930727 0.775005 -0.3615 1.26395 
210 1 1.96685 0.248696 0.137817 1.98729 
100 1 -0.50616 -0.131997 -1.07661 1.19696 
2620 1 3.08173 -1.53627 -0.126447 3.44575 
3135 1 0.413194 1.17779 -0.636314 1.401 
3701 2 0.916132 -0.816384 2.89394 3.14335 
2945 1 1.3763 -0.823222 1.49616 2.19326 
3392 1 -0.34797 1.98084 -0.264767 2.02852 
29 1 0.604336 -0.383306 -1.30377 1.48727 
4142 2 2.70012 -2.80413 -2.94402 4.88068 
333 1 1.74312 -0.10216 0.360586 1.78295 
4034 2 0.242599 2.31652 1.28731 2.66126 
2606 1 2.3053 -0.5604 0.419501 2.40924 
2504 1 2.2354 -2.8851 2.02795 4.17533 
3467 2 1.50361 1.20997 -1.4013 2.38506 
2941 1 2.1544 2.52285 -0.891236 3.43519 
3594 2 -4.01431 -0.529244 -1.57856 4.34587 
114 1 1.41184 -2.22971 0.332335 2.65995 
3080 1 2.69019 -0.591108 -2.048 3.43232 
3189 1 2.08692 0.919006 0.6243 2.36422 
2495 1 0.41421 -0.600632 -1.13811 1.3519 
546 1 0.431686 1.69396 -1.34905 2.20812 
58 1 0.783732 -0.625669 1.06048 1.45956 
4259 2 2.85597 1.90862 -2.935 4.51815 
821 1 -0.712787 -1.56907 -2.29829 2.87266 
2591 1 0.0926394 -0.924532 -0.653005 1.13567 
247 1 -0.431715 0.129423 -2.80162 2.83764 
1888 1 -1.23628 0.801621 -0.921696 1.73796 
823 1 -1.16724 -0.68478 0.0756353 1.3554 
3069 1 1.20831 -0.419217 -1.64223 2.08151 
4289 2 -0.583005 -3.13363 -1.01399 3.3448 
2496 1 2.31199 0.729473 0.158879 2.42955 
21 1 0.505747 0.825449 -0.371948 1.03706 
723 1 -1.28243 -0.300809 -2.09709 2.47647 
3844 2 -0.808912 2.89556 2.02281 3.62358 
568 1 0.547567 -0.498276 1.80211 1.94826 
401 1 -1.05781 -0.59319 1.24179 1.73577 
151 1 -0.569936 -0.185786 -0.797714 0.997843 
3035 1 0.771789 0.924948 0.479776 1.29668 
413 1 -1.4998 0.301159 -1.8796 2.42343 
3055 1 -0.662035 0.838308 -0.930681 1.41676 
3631 2 -0.546007 -2.72703 -0.839439 2.90508 
390 1 0.279257 -1.01716 0.222508 1.07801 
972 1 -1.25628 -0.0328978 -1.26627 1.78403 
3006 1 0.518301 -0.60223 -1.08872 1.34782 
3564 2 -4.70782 -3.24123 0.620593 5.74928 
4005 2 4.92271 -3.66497 -0.52061 6.15923 
3535 2 -0.832151 -0.349965 -1.64818 1.87922 
339 1 -1.40536 0.628669 -0.772522 1.72251 
3346 1 0.51177 -0.555075 -1.43537 1.62182 
3167 1 0.980059 1.82647 -0.676206 2.18031 
203 1 -0.0853919 -0.431865 -0.181239 0.476074 
3244 1 0.236708 0.406023 -0.180445 0.503434 
206 1 -0.0307427 -1.56925 -0.721465 1.72742 
3578 2 -1.03762 -0.177804 2.40801 2.62808 
3785 2 -2.21168 2.49751 1.42261 3.6267 
863 1 2.21444 2.52554 -2.74576 4.33835 
3353 1 -0.075781 -3.33214 1.19009 3.5391 
3570 2 2.69104 -1.06194 0.569231 2.94847 
2983 1 0.490763 -1.74266 0.643353 1.92136 
2735 1 0.651509 -0.293942 0.6368 0.957277 
4053 2 1.65203 -1.77577 2.73368 3.65452 
3394 1 -0.547887 -0.354045 -3.94315 3.99674 
75 1 2.38504 -3.79504 -0.445758 4.50438 
1807 1 3.47466 0.774049 -0.866207 3.6637 
4222 2 4.97548 -0.927819 1.6597 5.32643 
140 1 0.126382 -0.0275515 -0.344421 0.367909 
614 1 -1.14222 0.816703 0.739105 1.5868 
105 1 2.26899 -1.25238 -0.78107 2.70681 
3201 1 0.713519 0.162074 0.59444 0.942728 
639 1 1.20251 -1.86135 1.23737 2.53806 
3455 1 3.9037 1.7101 3.20503 5.3325 
3149 1 0.390763 -1.65614 -0.270178 1.72293 
8 1 -1.28863 1.49091 0.150278 1.97635 
894 1 0.322742 1.87261 1.53202 2.44088 
264 1 -1.4359 -1.2116 -1.07546 2.16481 
49 1 -2.24949 -1.25281 0.19016 2.58184 
93 1 -0.618397 0.868678 1.13746 1.55911 
3599 2 -1.62186 0.153216 -2.35618 2.86453 
72 1 -0.763363 -0.102415 0.207687 0.797713 
529 1 0.399816 2.47107 -1.51619 2.92658 
766 1 -3.16063 0.116933 1.10706 3.35095 
3841 2 0.0119861 -2.76545 -0.554521 2.82052 
3481 2 -0.65495 0.503195 -1.57167 1.77548 
5 1 -0.210476 0.737545 -0.669711 1.01823 
3040 1 -1.72694 3.50206 0.150982 3.90763 
988 1 0.430708 -0.201946 -0.0252097 0.476369 
633 1 2.33218 3.70511 -0.892081 4.46797 
2004 1 0.0163007 -0.404512 -3.73681 3.75867 
3137 1 -1.827 0.516515 -0.482967 1.95908 
859 1 0.170332 0.164283 -0.273452 0.361633 
3182 1 1.54669 1.14818 -0.450667 1.9783 
4052 2 3.02725 2.37093 -1.01981 3.97814 
4228 2 -1.1951 3.56509 -1.59018 4.0825 
3023 1 0.191604 -1.18213 0.117581 1.20332 
222 1 -1.57941 1.27448 -1.68504 2.63784 
4190 2 0.484221 -0.468541 -0.703494 0.974118 
3478 2 0.428553 -0.778256 -0.0421649 0.889448 
2981 1 -0.830631 1.00358 -2.24523 2.5958 
3152 1 0.640537 1.19119 0.418707 1.41582 
118 1 0.0518039 -0.799466 1.03027 1.3051 
604 1 0.702988 2.22246 -0.684278 2.42935 
338 1 -0.803386 0.00583352 -1.19632 1.44106 
3199 1 -0.0388146 -0.366892 -0.434104 0.569704 
4217 2 -1.04334 0.720879 -1.47054 1.94183 
3335 1 -0.373472 0.289043 -0.930983 1.04391 
600 1 -1.15864 0.642473 -1.31236 1.86481 
43 1 0.216722 0.493792 0.0754705 0.544513 
346 1 -0.17355 -1.47338 0.53688 1.57773 
825 1 0.0548381 0.496698 0.0574055 0.503002 
2968 1 0.860449 -1.68616 -0.488265 1.95497 
3378 1 0.503313 2.4459 -1.91043 3.14412 
2960 1 -1.2873 0.201087 0.931544 1.60167 
717 1 0.573845 -0.139697 -0.0104139 0.590696 
1648 1 -0.710718 -2.69233 -0.482063 2.82597 
1252 1 1.34716 1.06335 -0.945103 1.95928 
1339 1 -2.20613 1.58342 -0.300829 2.73217 
343 1 2.00109 1.89105 0.272253 2.76669 
493 1 -0.460868 -2.50239 -1.27896 2.84782 
3059 1 1.28048 -2.71587 -0.326296 3.02027 
878 1 -2.16724 1.34171 -1.06018 2.76063 
3656 2 -2.61678 -6.14247 -2.66487 7.18881 
4287 2 -2.80651 0.0342475 0.00807321 2.80673 
593 1 -0.255825 -1.00315 0.888853 1.36448 
1133 1 2.459 -0.208963 1.42177 2.84812 
91 1 1.18981 -0.308705 -0.154889 1.23893 
718 1 0.282697 1.32305 2.18691 2.57157 
40 1 0.979559 0.649556 -0.371948 1.2328 
3770 2 -5.16015 -1.17894 -3.38751 6.28429 
550 1 -0.566673 0.12046 1.46469 1.5751 
2921 1 4.12596 0.385899 0.115814 4.14558 
1480 1 -1.04535 1.34283 0.633268 1.81576 
133 1 0.157382 0.633208 -1.38198 1.52827 
3079 1 0.971993 -1.30717 -1.43152 2.16857 
724 1 -1.87748 1.4694 -0.433137 2.42315 
98 1 0.850272 2.13195 0.963612 2.48932 
67 1 1.17519 0.554521 -0.92667 1.59602 
54 1 0.382221 0.828118 -1.75398 1.97695 
157 1 -0.432179 2.18497 -2.08399 3.05023 
23 1 -1.57139 -1.18315 1.68926 2.59282 
524 1 -1.13656 1.11406 -0.992916 1.87585 
4094 2 2.74608 0.983911 -1.19163 3.15103 
3477 2 0.737357 -1.8535 -1.05758 2.25779 
330 1 -1.79309 -0.815106 0.779031 2.11813 
103 1 0.140617 0.00796856 -0.00381114 0.140894 
348 1 -2.19857 -0.31269 -0.94344 2.41279 
665 1 -0.68954 1.60582 -0.648346 1.864 
3369 1 -0.633318 0.114832 -1.38062 1.52328 
237 1 -1.0533 0.485987 0.321574 1.20376 
3786 2 -0.416381 1.45104 0.381137 1.55697 
640 1 -0.459434 -0.285465 -0.38958 0.66659 
3164 1 -0.561527 2.09571 0.586943 2.24762 
3216 1 -1.69708 0.128039 -0.117635 1.70596 
453 1 -0.451606 -0.357115 0.257551 0.630723 
379 1 -0.765595 0.519315 0.240724 0.955914 
479 1 0.525986 0.0881442 -0.00989903 0.533412 
3037 1 0.724367 0.269072 0.720036 1.0562 
387 1 0.546251 -1.01828 -0.107798 1.16056 
3038 1 -1.26047 3.22201 0.295252 3.47236 
3730 2 -0.958252 1.56664 1.30142 2.25085 
187 1 -2.30179 -0.353703 -2.15192 3.17082 
551 1 -0.290187 0.461875 -1.07745 1.20766 
1457 1 -0.406099 0.18694 -0.968242 1.06647 
3200 1 -0.470048 1.47624 -0.360922 1.59076 
46 1 -0.150635 -0.123243 -1.14577 1.16219 
216 1 0.768898 -0.391185 0.931947 1.26994 
3734 2 -1.2278 -3.05139 1.31517 3.54233 
3447 1 0.345445 -0.435018 0.138747 0.572559 
4199 2 1.62802 -2.05881 -2.76861 3.81502 
2508 1 1.6645 -0.161527 -0.369871 1.71273 
211 1 0.914379 -0.326149 -1.79433 2.04012 
609 1 -0.126813 0.0310706 2.20056 2.20443 
719 1 1.96384 -0.814372 -0.514276 2.18731 
312 1 -0.322992 1.18447 -1.23884 1.74414 
759 1 1.15513 0.235438 0.665866 1.35393 
2931 1 -1.00378 0.524144 2.00774 2.30506 
497 1 1.83094 2.92408 -0.894658 3.56413 
3616 2 -0.796288 0.102092 -2.71168 2.82803 
3525 2 -4.10564 -4.53536 0.370628 6.12888 
3230 1 0.452413 1.35946 -3.25324 3.55477 
812 1 -2.90122 -0.362746 -0.849032 3.04459 
725 1 1.35236 1.00587 3.60245 3.97722 
3514 2 -0.263206 0.839969 -2.5195 2.66884 
674 1 -0.234599 -1.31248 -0.287633 1.36396 
1179 1 -1.63853 0.900787 -1.81415 2.60525 
437 1 -0.631884 1.54 2.68361 3.15795 
1116 1 1.92109 0.112699 -0.128801 1.9287 
178 1 0.741557 0.132201 0.814004 1.10905 
1575 1 -2.4959 1.24064 -2.08312 3.47968 
803 1 -2.60877 1.77591 0.493663 3.19425 
3010 1 1.42757 1.75941 0.915725 2.44378 
241 1 0.4427 1.23691 0.483857 1.40002 
27 1 -1.37614 0.744253 1.06532 1.89277 
3030 1 -0.610125 1.31133 0.115748 1.45095 
4173 2 -0.531618 1.53417 -1.80064 2.42458 
131 1 2.46128 0.547234 -1.67398 3.02648 
3118 1 0.804847 1.38018 -2.17905 2.70202 
1036 1 0.139503 0.129459 0.484515 0.520553 
644 1 -1.07442 0.285058 0.0274642 1.11193 
6 1 -0.550134 1.88093 -1.16961 2.28222 
3637 2 -2.26469 0.0818787 0.413354 2.30356 
742 1 -0.189235 1.1941 -1.75293 2.12942 
252 1 0.774687 2.5312 -0.545822 2.70278 
3007 1 0.0950546 1.09634 -1.38585 1.76963 
3678 2 1.12806 -1.76133 -2.75046 3.4554 
2926 1 0.306497 1.57163 -1.84775 2.44502 
1091 1 -0.0607747 -2.39437 0.271464 2.41047 
212 1 -0.744034 -0.305938 0.286032 0.853815 
207 1 -0.456114 0.113725 0.82051 0.945626 
4081 2 3.51321 -2.70129 -1.71822 4.75309 
3223 1 -0.880556 0.288034 -0.307492 0.976163 
2684 1 -0.17397 -0.571088 -0.474449 0.762567 
249 1 1.02376 0.555873 -0.248799 1.19121 
1290 1 -1.34801 1.34584 -1.98262 2.7494 
36 1 1.83234 1.81985 2.19822 3.39139 
327 1 0.695676 0.0778725 -1.19086 1.38137 
3679 2 -0.835343 0.770107 -0.622489 1.29551 
3690 2 -2.14303 0.333402 -1.53323 2.65604 
3471 2 -5.65927 -0.0801372 -0.00951663 5.65985 
396 1 -1.14639 1.62184 -0.909919 2.18461 
3586 2 -1.82549 2.02717 -1.15946 2.96415 
3830 2 -0.344608 0.245934 1.74486 1.79549 
2636 1 1.18327 1.34933 -1.14017 2.12622 
3057 1 0.89561 0.90042 0.319491 1.30956 
240 1 0.927614 0.798139 -0.643048 1.38239 
1149 1 -0.882087 1.05436 0.0831905 1.3772 
195 1 0.373665 -1.57213 0.509574 1.69437 
3411 1 -2.03222 1.25674 1.41767 2.77833 
1160 1 -0.654851 1.3026 -1.66947 2.21647 
733 1 -0.410364 0.0839713 0.18212 0.456747 
135 1 0.0807328 1.43713 -0.473445 1.51526 
587 1 0.198276 0.659507 0.501547 0.851946 
3640 2 -3.5369 -0.760203 2.57752 4.44198 
3256 1 -1.6281 0.503871 -0.895474 1.92522 
4187 2 -1.92274 1.89912 -4.55292 5.29458 
602 1 -0.433838 -0.166221 0.118659 0.479505 
213 1 1.14027 -1.30202 0.920195 1.96016 
3607 2 -0.0352054 -2.81718 1.36628 3.13121 
2988 1 -1.33409 0.686795 0.835047 1.71721 
658 1 1.6685 -0.53358 0.280197 1.77401 
3092 1 -0.357963 1.44174 0.406054 1.54001 
721 1 1.05309 1.47036 2.03039 2.71909 
657 1 -0.479372 0.574495 -0.484246 0.891256 
3415 1 2.86962 0.0135812 -0.417102 2.8998 
217 1 -1.0042 -0.0147739 -1.09893 1.48872 
1569 1 -1.22089 1.94183 -1.81221 2.92325 
3651 2 0.16197 2.69183 -1.79869 3.24152 
920 1 -0.132573 0.985155 -0.836819 1.29937 
3974 2 -3.01988 -0.494222 1.88345 3.59323 
180 1 -2.38665 1.23352 -1.41655 3.03715 
4248 2 0.742473 1.27181 1.87394 2.38336 
354 1 -0.0587098 -0.995694 -0.0830909 1.00088 
70 1 2.07852 -0.867523 -1.7364 2.84393 
516 1 -0.631803 -0.667082 -0.10859 0.925184 
427 1 0.662739 0.93848 -0.695416 1.34297 
3408 1 0.835277 -0.941539 0.391086 1.318 
3393 1 0.703401 -1.6017 -1.29735 2.17792 
3776 2 -2.36745 10.1828 -1.91394 10.6281 
154 1 -0.37844 0.758021 -0.679777 1.08624 
2950 1 -0.433251 2.92447 -0.196786 2.96293 
377 1 -0.820635 -1.19583 0.842877 1.67746 
710 1 -0.516446 1.04547 0.243495 1.19122 
1278 1 -1.07843 1.11487 0.0915471 1.55381 
85 1 0.598071 -0.937799 0.670593 1.29879 
221 1 -0.314201 1.06411 -0.411701 1.18345 
504 1 -0.939144 -0.145017 1.60868 1.86839 
2851 1 0.675199 1.01967 -0.549311 1.34066 
3401 1 0.417882 0.0428337 0.281533 0.505688 
311 1 -1.99715 -0.573569 0.564691 2.15325 
858 1 -0.397655 1.69901 -0.575497 1.83738 
329 1 -1.17809 -0.0130432 1.68296 2.05437 
116 1 -0.307256 0.562471 2.35883 2.44435 
2687 1 -0.542988 -0.363766 1.05213 1.23861 
2740 1 -0.638392 -0.882323 -0.697878 1.29347 
364 1 0.331155 -0.768116 0.400553 0.92742 
3227 1 0.417531 -0.711547 -1.80266 1.98248 
635 1 -0.656417 -1.42052 -0.1775 1.57489 
3409 1 0.560623 -0.791924 -0.751924 1.22753 
861 1 -0.684607 0.781418 0.86608 1.35255 
3528 2 -0.639576 2.15364 2.82524 3.6096 
429 1 1.75794 0.288496 0.744462 1.93076 
274 1 -0.36878 2.51164 3.40136 4.24424 
3404 1 1.06102 -0.647295 -0.758403 1.456 
309 1 0.249785 -1.17559 -1.38054 1.83039 
334 1 0.305224 0.520225 0.41241 0.730669 
801 1 -0.803564 -0.736884 0.918739 1.42576 
4239 2 0.931793 -2.55841 0.768635 2.82922 
1809 1 -2.02369 1.44362 0.531324 2.54198 
412 1 1.29318 -0.934383 -0.882722 1.82335 
319 1 1.66693 -1.05244 1.74514 2.63283 
1349 1 -1.07351 -1.16265 1.47284 2.16181 
1590 1 -2.52978 -3.08681 -1.66318 4.3237 
836 1 0.712347 -0.783552 -1.54035 1.86924 
461 1 -0.0341839 -0.337736 1.438 1.47753 
4099 2 -2.70508 4.28353 1.57698 5.30594 
392 1 -0.342817 0.0647021 -2.19407 2.22163 
362 1 -0.252534 -0.0625142 0.439372 0.510616 
3546 2 -0.385262 -1.68091 -2.3792 2.93845 
3390 1 -2.39204 -1.57512 -1.04588 3.04906 
265 1 -0.117036 0.56785 -0.282635 0.645007 
702 1 -1.26028 1.25497 0.621459 1.884 
877 1 -0.952312 -1.65417 3.22185 3.74479 
3421 1 2.47864 1.42149 1.57038 3.26042 
2823 1 2.70486 -4.06246 -1.31405 5.05437 
935 1 -1.87315 -1.06436 -0.881952 2.32796 
3272 1 1.88494 1.12609 -1.1084 2.4596 
4020 2 2.92354 0.0159645 2.07441 3.58477 
3379 1 -1.11341 -0.26408 0.0625539 1.146 
677 1 -0.567025 -2.76259 0.536242 2.87071 
4275 2 2.66814 1.9695 0.0675126 3.317 
1449 1 -0.324842 -0.555073 -0.170585 0.665378 
448 1 -1.29492 -0.0653591 -0.100613 1.30046 
3422 1 0.904936 0.635256 -1.54193 1.89737 
951 1 0.306061 1.04147 -1.55768 1.8986 
2838 1 1.54527 -0.363146 -0.533848 1.67473 
2052 1 0.19563 0.659178 1.4045 1.56378 
3554 2 0.584464 5.23917 -0.979164 5.36183 
3495 2 -2.88194 1.24176 0.122487 3.14047 
1313 1 1.33995 -0.246582 -0.412875 1.42363 
155 1 -0.811169 1.26808 1.69396 2.26617 
462 1 1.15262 -0.0023099 1.35512 1.77901 
205 1 -0.714595 0.167552 1.79614 1.94032 
750 1 -0.458363 1.0393 0.751582 1.36202 
3330 1 0.82596 0.801805 0.472524 1.24434 
246 1 0.432032 1.10768 1.20189 1.69061 
716 1 -1.35505 0.0290971 -0.426681 1.42094 
3860 2 -4.67427 0.186459 3.02389 5.57023 
800 1 0.583964 -1.00218 3.66308 3.84234 
356 1 -1.01117 -1.16623 0.803512 1.74017 
2966 1 0.250002 1.74631 -0.445307 1.81945 
3617 2 0.636784 1.6481 -1.61344 2.39268 
3580 2 1.79073 1.58716 6.06374 6.5188 
4085 2 -1.09986 -1.33481 4.24059 4.57974 
3389 1 0.220009 -1.00634 1.24643 1.61701 
974 1 -1.32142 -0.414261 0.32418 1.42227 
398 1 0.813591 -1.42413 0.325613 1.67215 
1212 1 -0.32817 -0.357387 -0.463551 0.671045 
447 1 -0.606372 -1.46386 -2.20272 2.7134 
373 1 -1.34095 0.653808 -0.293052 1.52036 
4318 2 -0.221345 0.677814 -0.00743083 0.713078 
2732 1 -0.0306192 -0.29971 -0.435894 0.529875 
4265 2 2.36521 0.733063 -0.172531 2.48221 
490 1 1.63948 -1.99948 -2.61505 3.67754 
4146 2 -1.11096 0.491522 0.608535 1.35872 
3352 1 -1.51061 -2.7391 1.54153 3.48726 
411 1 -0.158806 1.52734 1.19909 1.94828 
2401 1 2.6857 0.826288 0.354101 2.83216 
382 1 0.128346 -0.601919 -2.90723 2.97166 
3301 1 -2.22938 0.883712 -0.264402 2.41267 
2365 1 -1.90089 0.30228 -0.133291 1.92938 
3249 1 -0.651554 -1.12001 0.845953 1.54744 
2757 1 1.74439 -0.568672 -0.0215095 1.83487 
3180 1 0.16647 -0.0119044 -0.919192 0.934221 
3314 1 -0.043334 0.0500977 -2.17572 2.17673 
2848 1 1.64922 1.33549 1.03528 2.3612 
2745 1 -0.328388 -1.03075 0.628626 1.25118 
2329 1 0.183266 1.2343 -0.299779 1.28334 
2675 1 2.04415 -1.21716 -1.32542 2.72338 
73 1 0.25213 -0.602965 -0.949262 1.15249 
3013 1 1.29667 1.23549 -3.09692 3.57753 
306 1 0.414232 1.13134 0.266721 1.23396 
4098 2 0.261998 -0.4953 3.33628 3.383 
2858 1 2.25356 0.0236305 -1.2863 2.59493 
4284 2 -1.14735 0.565695 -0.414524 1.34472 
2506 1 2.69778 -0.833802 -1.29676 3.10722 
536 1 0.86389 -1.1374 0.321207 1.46395 
78 1 -0.092618 0.413523 -0.912234 1.00586 
1172 1 0.252445 0.199217 -0.874382 0.931643 
865 1 -0.612424 0.926685 -0.415122 1.18581 
389 1 -0.399015 0.961917 -0.490228 1.15101 
601 1 -0.612989 0.764453 0.660567 1.18173 
3539 2 -1.17854 -1.57647 1.30452 2.36135 
3094 1 0.178105 -0.289666 -0.113457 0.358469 
325 1 -1.1767 -0.332919 -0.402481 1.28742 
2890 1 -0.604868 -0.0960419 1.19496 1.34277 
1077 1 -0.401828 0.880683 2.4346 2.61999 
291 1 0.93939 -1.5955 -0.078326 1.85316 
3022 1 0.000589242 1.66502 1.43045 2.19511 
4056 2 -1.18383 -2.90551 -0.154299 3.14122 
2965 1 -0.430262 0.491075 1.62646 1.75262 
250 1 -1.26743 -2.18754 0.109125 2.53054 
1285 1 -0.673458 1.17678 1.52613 2.04143 
482 1 0.0247086 -0.724229 1.23032 1.42786 
3639 2 -3.98037 -0.876042 -2.50173 4.7822 
1324 1 0.128908 0.207338 0.450095 0.512047 
272 1 1.24763 0.199933 0.237275 1.28563 
4309 2 0.944503 -1.02249 0.0873159 1.39471 
273 1 -3.04181 -2.00114 -0.42797 3.6661 
388 1 -0.111695 0.978523 1.18182 1.5384 
980 1 0.887297 -0.668284 -0.971113 1.47545 
1432 1 -0.797789 0.0571442 -0.909245 1.21097 
4182 2 0.580944 1.03085 -1.36385 1.80562 
3380 1 -0.186489 -1.95799 -1.34638 2.38353 
3321 1 0.0429337 0.533643 0.302353 0.614846 
3571 2 -1.94928 1.22191 -5.74077 6.1846 
3827 2 4.15006 -2.80207 0.0150513 5.00747 
439 1 0.862345 1.85085 -0.30868 2.06508 
385 1 -2.03102 -3.127 -0.0741304 3.72943 
2819 1 0.89454 -0.806995 -1.99103 2.32715 
2479 1 -0.766978 -2.63534 -0.419974 2.77662 
4297 2 -1.03032 1.65731 2.67825 3.3138 
2776 1 0.217851 -0.00781737 -1.26869 1.28729 
332 1 -1.34487 -1.84521 1.03853 2.50839 
2959 1 1.28384 -1.72631 1.37554 2.55352 
294 1 2.31081 -0.850636 -0.0977656 2.46435 
3320 1 0.134378 0.996783 0.142968 1.01591 
474 1 -0.0170969 -0.88694 -3.66806 3.77381 
404 1 0.451097 1.90377 -1.06298 2.22661 
3493 2 0.813434 -2.47839 -1.65357 3.08843 
227 1 0.962586 -1.92224 -1.72427 2.75585 
3445 1 1.58607 -1.40194 -0.31993 2.14089 
2768 1 -0.700937 -1.74334 -0.0596742 1.87992 
915 1 -1.73685 -0.0150237 1.52345 2.31036 
4025 2 4.21194 2.26671 1.49396 5.01102 
2993 1 0.218964 0.00430496 -1.19663 1.21651 
3350 1 -0.199647 0.0627906 1.25658 1.27389 
199 1 -1.56143 0.809716 -1.1681 2.11143 
248 1 -0.506176 0.523114 0.35349 0.809208 
4185 2 -0.164209 -0.32012 0.910842 0.979323 
778 1 -0.719558 0.586745 -0.301816 0.976282 
581 1 -0.613917 -0.407056 -1.75172 1.90029 
741 1 -0.250501 -0.285715 -0.656564 0.758591 
661 1 -0.685452 0.40204 0.213504 0.822839 
1314 1 0.388966 -1.63509 1.86902 2.51357 
489 1 1.30951 0.0198077 0.604625 1.44249 
908 1 -0.0803508 -0.159615 0.94358 0.960352 
2869 1 -1.16577 -0.567833 -0.436573 1.36822 
3676 2 0.109539 0.852333 2.07792 2.24861 
4206 2 -3.1627 -5.83467 2.32725 7.03293 
3322 1 -0.338739 1.81751 -0.73194 1.98843 
943 1 -0.296733 -0.201252 2.08778 2.11834 
962 1 -0.955729 0.608512 0.25808 1.16203 
3504 2 -0.611419 2.56022 0.103596 2.63425 
838 1 -0.281711 0.758429 1.35943 1.58197 
866 1 -1.79219 0.121563 -1.43148 2.29693 
499 1 -1.67507 2.11395 1.34348 3.01323 
874 1 0.237337 -0.216597 -0.090361 0.333779 
365 1 0.122295 -1.11683 0.0822905 1.12652 
4109 2 -1.79471 -0.321743 1.32858 2.25602 
3476 2 0.0945051 0.388496 -0.816578 0.909209 
875 1 -0.872591 -0.187286 -1.53883 1.7789 
3991 2 2.99454 -1.42604 -0.62419 3.37498 
1442 1 -0.0372228 -0.132212 -0.966152 0.975867 
3944 2 1.95077 3.01306 -1.34572 3.83341 
3544 2 0.0166405 -2.75277 -1.64684 3.20782 
810 1 -0.821976 0.37785 -0.624703 1.09939 
2764 1 2.09839 0.400904 2.23025 3.08836 
691 1 -0.119331 -4.53268 0.631427 4.578 
177 1 0.0926953 1.58816 -1.20621 1.99645 
3916 2 -1.51524 -4.49444 1.63472 5.0168 
2973 1 0.306467 -1.32337 -0.516342 1.45322 
3278 1 -0.0789854 -0.838677 -2.17747 2.33474 
957 1 0.852558 -0.989175 -0.95928 1.62035 
3293 1 1.29424 1.57629 1.77633 2.70465 
2861 1 -1.24195 -0.386825 1.14848 1.73525 
3291 1 -0.680557 0.0216428 -1.36349 1.52406 
4280 2 -0.907249 1.53522 -0.0125234 1.7833 
964 1 0.412573 -0.503414 -1.67399 1.79608 
2961 1 -0.394635 -1.70413 2.1386 2.76286 
3524 2 -2.39055 -1.70022 0.557 2.98592 
458 1 3.66747 -0.668734 -0.194337 3.733 
496 1 1.16586 0.471064 0.316476 1.29665 
2500 1 1.1652 -2.28506 -0.788516 2.68345 
793 1 0.742424 1.46948 -1.91294 2.52387 
783 1 -1.85329 0.401578 0.632665 1.99905 
3996 2 3.37289 3.22993 6.62664 8.10686 
2524 1 2.0166 -0.0745864 -0.741905 2.15004 
676 1 -1.47164 -0.308184 -0.224832 1.52028 
771 1 -1.46843 -0.163343 0.220347 1.49383 
3192 1 0.417254 1.73869 -3.2664 3.72378 
419 1 0.346251 -0.107037 -1.35142 1.39917 
4266 2 -3.41837 2.79271 0.363327 4.42905 
214 1 -1.24793 1.67282 -0.0370392 2.08735 
4028 2 0.562675 0.980627 0.079959 1.13341 
3240 1 -0.694585 -0.676695 -1.33272 1.64818 
4271 2 -0.739346 -0.0226929 1.51384 1.68489 
3396 1 0.339437 0.305508 0.6215 0.771242 
352 1 1.18212 1.85423 -0.439735 2.24253 
914 1 -1.04672 -0.637096 0.459696 1.30875 
3166 1 0.598117 0.838983 1.76677 2.04526 
2795 1 0.137374 -1.55672 -1.0386 1.87641 
1418 1 0.728668 -0.884175 0.425086 1.22206 
3435 1 0.294985 -2.03059 0.72451 2.17606 
3327 1 -0.113681 0.0407691 -0.169259 0.207928 
3644 2 -0.56938 3.22699 0.948614 3.41138 
652 1 0.0766285 0.537805 2.20527 2.2712 
1762 1 -1.98505 0.676993 0.994117 2.32099 
3331 1 1.02079 -0.768345 1.38457 1.88399 
1450 1 0.67987 -0.973668 -0.16511 1.19896 
292 1 0.051808 0.43201 1.25682 1.33 
3487 2 -0.274229 2.78664 1.73324 3.29312 
3381 1 1.57817 -0.689566 -1.10854 2.04816 
3758 2 -3.95345 -0.795713 0.244681 4.04015 
436 1 0.245002 -0.841383 2.53947 2.68642 
440 1 0.130926 -0.349796 -1.04627 1.11094 
3482 2 -0.288883 -2.90852 -1.82261 3.44453 
937 1 -0.0631397 -1.62257 0.638698 1.74489 
314 1 0.630203 -1.90734 -0.0120113 2.00879 
321 1 -1.19727 -0.627308 -0.812706 1.57717 
1723 1 -0.973177 1.53696 -1.89497 2.62684 
501 1 0.43249 -0.458855 -1.20323 1.35844 
3313 1 -0.0314705 -2.23922 -2.81762 3.59918 
3070 1 0.756702 -0.61376 0.439092 1.06869 
854 1 0.256095 -0.0581099 0.526263 0.588145 
331 1 -1.07702 0.622058 -0.813473 1.48616 
2710 1 0.863869 -0.499004 -2.47946 2.67264 
1409 1 0.708133 -0.490526 -0.471403 0.981982 
279 1 1.84043 -1.58777 0.604138 2.50463 
2656 1 -1.28242 2.04324 -1.56274 2.87429 
308 1 -1.21819 0.672042 -2.51597 2.87501 
3228 1 1.94105 0.146374 0.152843 1.95255 
3290 1 -0.636543 -0.332545 -3.38833 3.46361 
1289 1 -1.88702 1.70264 0.0411124 2.54195 
486 1 1.10544 0.997098 -1.49445 2.1094 
442 1 0.988779 2.38075 0.5705 2.64028 
239 1 1.62925 -2.43759 -2.02667 3.56422 
174 1 -0.36209 -0.851419 0.722208 1.17372 
183 1 -0.292981 1.09896 -0.451702 1.22376 
599 1 0.864152 -0.108066 0.127964 0.880234 
2977 1 0.0122136 1.27117 1.41893 1.90509 
3388 1 -1.39795 0.361676 -0.678919 1.59562 
2515 1 2.20063 3.62514 -0.588879 4.2815 
113 1 -0.387023 0.517156 -0.126371 0.658185 
95 1 -0.479011 2.25181 0.35059 2.32874 
767 1 2.4873 -2.22283 -1.36255 3.60336 
3819 2 -0.883254 -0.550391 0.0499261 1.0419 
956 1 -1.12993 -0.592615 2.13108 2.48384 
3520 2 -3.86546 -3.48139 0.479704 5.22417 
3056 1 -0.516164 2.50077 1.50615 2.96459 
393 1 -1.54414 0.530921 -0.970453 1.89948 
699 1 -1.23778 1.50652 -0.133139 1.95434 
772 1 -0.314025 -0.56372 -0.293249 0.708793 
786 1 -0.103821 0.438082 0.588539 0.740995 
478 1 -0.0236844 -0.925496 -1.38323 1.66446 
295 1 -0.639854 -2.45479 1.65309 3.02789 
2706 1 1.3535 -2.30067 1.27677 2.95892 
2880 1 1.23172 -1.4059 1.31894 2.28764 
3531 2 2.13882 0.545562 -2.3323 3.2112 
4154 2 -1.44382 0.0600237 -1.13479 1.83738 
31 1 -1.01476 0.244184 -0.205686 1.0638 
275 1 2.59904 -1.45912 0.889419 3.11048 
2696 1 -1.01653 -0.643132 -1.59922 2.00111 
268 1 -1.64167 -1.04539 1.96152 2.76323 
431 1 -0.160819 0.460266 0.209812 0.530781 
3250 1 1.28586 -0.718953 -1.59154 2.16871 
3612 2 -0.464714 0.55717 -0.639656 0.967243 
3397 1 0.194806 -1.2409 0.629847 1.40516 
3328 1 -2.61394 0.855818 -0.675635 2.83224 
433 1 0.322999 0.842676 -0.766928 1.18432 
3371 1 0.0227035 -1.09995 0.377038 1.16299 
92 1 0.785662 -1.39616 -1.51703 2.20633 
543 1 2.28744 0.910722 -1.26182 2.76658 
370 1 -1.08995 -0.763125 -2.13642 2.51687 
3661 2 -3.43279 -1.74181 -2.62203 4.65758 
3436 1 -0.08426 -0.566744 -0.0141083 0.573147 
3333 1 0.327848 -0.13276 -1.35251 1.39799 
3395 1 1.92324 1.66769 1.4379 2.92363 
647 1 -0.802181 0.66581 -0.796431 1.31191 
840 1 0.383838 2.0357 -0.744565 2.20132 
421 1 -0.560233 3.27386 -0.0455816 3.32176 
3717 2 -2.30004 0.0704986 0.410587 2.33747 
3219 1 1.87071 0.736982 -0.274759 2.02933 
1412 1 1.04214 0.487394 -2.1724 2.45824 
708 1 0.46125 -0.298165 -1.24091 1.35702 
891 1 -0.432796 0.100829 -0.297088 0.534547 
3211 1 0.757957 -0.0359597 0.835257 1.12847 
289 1 0.777122 0.895151 -1.40279 1.83658 
484 1 2.88549 -0.497884 0.244127 2.93829 
527 1 1.97956 -0.518601 -0.903932 2.23712 
3589 2 2.62242 -0.402 -1.67276 3.13637 
1641 1 -0.855388 1.02769 -0.0594837 1.33842 
3600 2 -0.0759613 0.112153 -0.952216 0.961802 
712 1 0.705264 -0.388143 -1.60952 1.79961 
1220 1 -1.66366 1.34688 -2.10459 3.00185 
3002 1 2.26152 0.0851221 -1.68079 2.81901 
3533 2 -0.409557 -1.23998 -1.0176 1.65554 
1544 1 -0.364153 1.24771 -0.277907 1.32914 
631 1 0.56174 1.09005 -0.263637 1.2543 
960 1 0.308752 1.6101 -2.36973 2.88155 
123 1 -0.780748 1.13285 -0.663522 1.52748 
573 1 -0.305984 1.35856 0.28786 1.42203 
3003 1 2.97209 0.449247 1.09345 3.19856 
3418 1 1.68823 0.282414 0.0187952 1.71179 
3173 1 -0.317168 -0.575442 1.47582 1.61548 
3459 2 0.314025 -3.7273 -2.21406 4.34666 
997 1 -1.31501 0.450564 -1.12222 1.78652 
3859 2 -1.80893 3.16523 2.31333 4.31769 
738 1 2.37574 -0.9041 -2.47817 3.55005 
683 1 0.0229701 2.43132 0.456176 2.47385 
2057 1 -0.993531 0.541435 0.358753 1.187 
50 1 1.01465 -0.0746372 -0.679564 1.22347 
115 1 1.21045 0.397104 1.63171 2.07011 
555 1 0.22746 0.612522 -1.00098 1.19536 
562 1 1.94826 -1.31149 -0.942331 2.53056 
3740 2 -1.85281 3.07404 2.37228 4.30236 
1013 1 -0.579248 1.38654 -0.172609 1.51255 
1637 1 -1.11744 2.67177 -1.55852 3.28878 
611 1 -1.10147 1.64199 -0.695081 2.09583 
1053 1 -0.112067 1.50075 -0.47457 1.57798 
3687 2 -2.01544 1.53714 7.14744 7.58358 
655 1 -0.261242 1.6314 0.752472 1.81546 
664 1 -0.551968 -0.243206 1.48288 1.60086 
1341 1 0.729312 1.05354 -0.307179 1.31765 
28 1 2.05374 1.04405 -1.07051 2.54045 
1485 1 -1.40266 2.05912 -1.13464 2.73767 
3940 2 -3.79506 2.11713 -1.07121 4.47574 
1320 1 1.26279 -2.71407 1.3452 3.28182 
1093 1 0.790553 0.53783 1.28665 1.60303 
52 1 0.523068 -0.0756277 -0.73185 0.902732 
3112 1 -2.00104 0.866595 2.22021 3.11199 
3468 2 2.35587 0.0291454 3.50138 4.22027 
1118 1 1.25746 1.09134 0.703657 1.80758 
3632 2 1.70989 -0.268118 -0.583997 1.82665 
728 1 1.996 -0.204613 1.49616 2.50287 
3464 2 1.55713 -1.55013 -3.94542 4.51596 
3251 1 1.70083 1.06097 -2.01001 2.83877 
1566 1 -1.54718 1.66471 -0.96413 2.46872 
907 1 0.285666 0.334093 1.74259 1.79718 
675 1 0.0412847 -0.240877 -3.87143 3.87914 
4251 2 7.28674 0.743336 -1.56766 7.49044 
376 1 -2.01207 -0.608581 0.00971147 2.10212 
3645 2 2.4172 5.46306 -0.295997 5.98126 
96 1 0.424138 -0.513661 -1.57356 1.70875 
817 1 0.717363 0.384388 0.431404 0.921126 
2987 1 -0.264045 0.230075 -1.4466 1.48839 
196 1 -1.21913 0.702988 1.54205 2.08767 
351 1 1.58957 1.12566 -0.764943 2.0926 
3512 2 2.74228 0.146364 2.44942 3.67983 
569 1 2.70318 -1.46945 0.371138 3.09907 
627 1 0.413513 0.882575 0.599025 1.14401 
975 1 -0.661428 0.544195 -1.48563 1.71486 
828 1 -2.00825 -0.63897 -0.613108 2.19482 
469 1 -0.283622 1.62679 -0.370217 1.69232 
1478 1 -1.69218 0.409413 -0.245426 1.75821 
3704 2 -2.3659 0.287188 1.48224 2.8066 
1467 1 -0.760179 0.189022 -0.252581 0.823042 
1154 1 -2.24832 1.26963 0.65395 2.66356 
3592 2 -0.535232 1.7589 3.00097 3.51938 
1484 1 -1.67669 0.254798 -0.23777 1.71253 
3957 2 -0.836318 1.43057 0.245215 1.67514 
987 1 -1.519 2.5106 -0.287605 2.94842 
545 1 -0.793611 1.31035 0.349038 1.5712 
158 1 0.446948 -0.419432 -0.75649 0.973634 
1709 1 0.215315 2.25108 -0.352937 2.28873 
4198 2 -0.711637 -5.92206 1.69295 6.20027 
3722 2 -0.973306 1.14313 -1.4536 2.08974 
624 1 -0.556909 0.0922011 0.0501331 0.566712 
397 1 -1.10361 -0.5703 0.399494 1.30491 
1454 1 0.77067 -2.22616 -0.910238 2.52552 
3823 2 0.396012 1.1832 0.114088 1.25292 
934 1 -0.344658 -0.511212 0.599093 0.859674 
1038 1 -0.565702 1.0674 1.47762 1.9086 
77 1 -0.0499454 0.957492 -0.115322 0.965704 
4273 2 1.37933 -0.853312 -1.5982 2.27705 
4048 2 0.250586 0.422421 6.52998 6.54842 