ITEM: TIMESTEP
2400
ITEM: NUMBER OF ATOMS
4320
ITEM: BOX BOUNDS pp pp pp
0.0000000000000000e+00 1.9309999999999999e+01
0.0000000000000000e+00 1.9309999999999999e+01
0.0000000000000000e+00 9.6549999999999994e+00
ITEM: ATOMS id type c_displacement[1] c_displacement[2] c_displacement[3] c_displacement[4] 
3196 1 0.000979609 0.119083 0.0600135 0.133354 
381 1 -0.0751875 -0.019935 0.0255333 0.0818689 
327 1 0.0252648 0.162919 0.17065 0.237281 
484 1 -0.0709186 0.285956 -0.0104222 0.294803 
728 1 -0.0319228 0.0863987 0.0529236 0.10623 
817 1 0.100447 0.0231708 0.00829495 0.103418 
4034 2 -0.0035837 0.109473 -0.0515421 0.121053 
255 1 0.0129575 0.0222866 -0.0849025 0.08873 
2945 1 -0.0571325 0.162003 -0.0698884 0.185455 
3230 1 0.0303491 0.0387446 0.0268223 0.0560504 
3651 2 0.0549807 0.141596 0.0276839 0.154398 
66 1 -0.0122227 0.163581 -0.000664734 0.164038 
400 1 -0.124938 0.110923 -0.112298 0.201306 
677 1 0.0353869 0.164839 0.0681635 0.181853 
87 1 -0.00704681 0.176003 -0.129173 0.218432 
4053 2 -0.0102745 0.10927 -0.00614023 0.109923 
727 1 0.221263 -0.0528834 -0.0950099 0.246538 
688 1 -0.0387357 0.0788504 0.0961165 0.130216 
58 1 -0.0104753 -0.108913 -0.0533048 0.12171 
3514 2 -0.0161597 0.0421858 -0.122629 0.130686 
18 1 0.0718106 0.0981335 0.11864 0.169889 
298 1 -0.0247192 0.0878582 -0.217404 0.235785 
190 1 -0.0659967 -0.0200264 -0.108794 0.128813 
3618 2 -0.232926 0.225954 0.160327 0.36196 
180 1 0.0212126 -0.0182469 0.213692 0.215516 
106 1 -0.145007 -0.00269373 -0.0238432 0.146978 
217 1 0.0208698 -0.0137801 0.00780619 0.0261988 
775 1 0.0421157 0.00179749 -0.151392 0.157151 
3627 2 0.0470259 0.146432 -0.1038 0.185548 
1178 1 0.0737123 0.0906155 -0.0532316 0.128368 
623 1 0.136536 0.119271 -0.110682 0.212411 
3118 1 0.0558824 0.100126 -0.100722 0.15262 
562 1 -0.0179554 -0.0964432 -0.00510512 0.0982332 
70 1 0.105848 0.127162 0.0225098 0.166976 
121 1 0.00994808 0.119096 -0.106261 0.15992 
1118 1 -0.0176333 -0.159578 -0.0657084 0.173476 
210 1 0.122903 -0.0087899 0.162736 0.204121 
4214 2 0.236568 -0.0100286 0.1458 0.278069 
226 1 0.280796 -0.0210753 0.146653 0.317486 
65 1 -0.0171318 0.0667575 0.0133001 0.0701923 
532 1 -0.0547671 0.0349333 0.0774619 0.101095 
3578 2 -0.0523725 0.170785 -0.0170689 0.179449 
473 1 -0.0118697 -0.0557248 -0.0942036 0.110093 
246 1 0.0895929 0.0568679 0.0346301 0.111625 
2936 1 -0.0725226 0.21563 0.011497 0.227789 
4071 2 0.125787 0.183873 0.216481 0.310638 
2838 1 -0.0852018 0.257636 0.0723993 0.280851 
536 1 0.0074489 0.141854 0.0869969 0.166573 
894 1 -0.0684342 0.00322344 -0.0890969 0.112392 
289 1 -0.0153013 0.0142794 0.128831 0.13052 
351 1 -0.0621459 0.144509 -0.00761851 0.15749 
197 1 -0.124473 0.158595 -0.146589 0.249267 
303 1 -0.0252823 0.0695859 -0.0854974 0.113098 
3135 1 0.0699654 0.301175 0.0434049 0.312227 
1415 1 0.00296563 0.167897 0.0270373 0.170086 
527 1 -0.252894 0.082519 0.12543 0.294104 
3002 1 -0.0187117 0.231967 0.0754829 0.244656 
3189 1 0.113047 0.0351949 -0.00673057 0.11859 
712 1 0.0513829 0.0182131 0.0209591 0.0584055 
718 1 0.103009 0.0888878 0.087281 0.161647 
3469 2 0.000186305 -0.074268 -0.0253637 0.0784798 
3712 2 0.000778627 0.0821046 0.0407707 0.0916735 
96 1 0.178789 0.117309 -0.0657375 0.223715 
110 1 0.0478763 -0.0353139 -0.0328732 0.0679695 
4177 2 0.228395 -0.456799 0.152241 0.532923 
93 1 0.0803088 0.232104 0.154401 0.290106 
569 1 0.0754712 0.147561 0.017576 0.16667 
639 1 -0.125638 0.0709695 0.149689 0.207915 
21 1 -0.171273 -0.024914 0.185556 0.253745 
3353 1 -0.113299 -0.140147 -0.056751 0.18894 
823 1 0.040825 0.0757799 0.0423295 0.0959222 
2596 1 -0.0532551 -0.116103 0.0422471 0.134539 
50 1 -0.0576788 -0.137459 0.0138877 0.149716 
2495 1 0.110445 0.214231 0.0895621 0.257127 
28 1 -0.0234809 0.00641302 -0.0719282 0.0759352 
3055 1 0.0421031 0.0841169 0.020219 0.096214 
12 1 0.003819 0.00718596 -0.176847 0.177034 
3006 1 0.140855 0.00804648 0.122864 0.187084 
424 1 0.0477824 0.0762638 -0.000961369 0.0900014 
232 1 -0.159326 0.0575817 0.0313184 0.172283 
4170 2 0.117883 0.159488 0.0738656 0.211634 
738 1 0.0346 0.0317353 0.0205861 0.0512648 
2453 1 0.0565627 0.0921816 0.209119 0.235431 
3167 1 0.0793464 -0.177891 -0.0155944 0.195408 
339 1 0.103907 0.191998 0.0654336 0.227907 
390 1 0.0634354 -0.109441 0.207355 0.242894 
203 1 0.11691 -0.0254548 0.0352394 0.12473 
3582 2 0.0151392 0.207089 -0.0181668 0.208435 
3632 2 0.180579 0.0934778 0.0146552 0.203866 
231 1 0.0819836 -0.051492 0.11825 0.152826 
323 1 0.0852493 0.0384286 0.00475409 0.0936312 
3244 1 0.100028 0.0241624 -0.0182886 0.104517 
118 1 0.0639812 0.00417316 0.172542 0.18407 
657 1 -0.298328 -0.0488177 -0.0219775 0.303094 
155 1 -0.146059 0.0712689 -0.101121 0.191411 
3337 1 -0.0586104 0.236942 0.0900127 0.260152 
553 1 -0.0857738 0.125038 -0.333068 0.365959 
2735 1 0.0166675 0.125949 -0.0345928 0.131672 
2768 1 0.158998 0.133474 0.0344822 0.21044 
29 1 -0.0518737 0.275687 -0.0272348 0.281843 
753 1 0.0776436 0.117944 -0.00399612 0.141263 
3467 2 -0.42216 0.051329 -0.0420383 0.427342 
3251 1 -0.0931199 0.0334042 -0.121972 0.157049 
3916 2 -0.0640771 0.0135489 -0.200371 0.210803 
737 1 0.0610022 0.20983 -0.0908439 0.236649 
4187 2 -0.0197092 0.0841285 -0.0610332 0.105788 
437 1 0.0319397 -0.0983885 -0.0830315 0.132645 
53 1 0.140996 0.157403 -0.141074 0.254082 
593 1 -0.0379173 0.147827 0.123666 0.196427 
609 1 0.0238769 0.078127 -0.0731336 0.109647 
3040 1 0.0621632 0.177803 -0.0354201 0.191658 
1133 1 0.158828 0.187768 -0.0566283 0.252369 
546 1 -0.0732272 0.0500576 0.0475259 0.100631 
233 1 0.0741386 0.020851 0.163739 0.180947 
725 1 -0.00800349 0.0884172 -0.0403144 0.0975034 
167 1 -0.0749188 0.00029481 0.172846 0.188384 
610 1 -0.0224912 -0.0118866 0.148082 0.150251 
89 1 -0.0233654 0.0688938 0.108826 0.130902 
3149 1 -0.0649867 -0.188126 0.155046 0.252297 
550 1 -0.00272434 0.00425077 0.121531 0.121635 
147 1 -0.106446 -0.0604303 0.231955 0.26227 
247 1 0.0126417 0.093182 0.157114 0.183105 
3554 2 0.117489 -0.0129405 0.183825 0.218547 
3786 2 -0.0772605 0.183076 0.11315 0.228668 
5 1 0.0804066 0.109969 0.131131 0.189086 
2591 1 0.118543 0.0893413 0.103197 0.180787 
3232 1 0.0347573 0.00274917 -0.0127282 0.0371165 
1215 1 0.0998063 0.0903665 0.0869624 0.160281 
859 1 0.150186 0.113594 0.0877351 0.207742 
3152 1 0.047486 -0.0209407 0.111173 0.12269 
59 1 0.0542498 0.0662946 -0.00469932 0.085791 
3478 2 0.103919 0.0525004 0.0177275 0.11777 
988 1 -0.0629635 0.00356137 -0.0832874 0.10447 
2461 1 0.00872906 -0.114093 0.0602427 0.129316 
23 1 -0.0187155 -0.0149942 0.0120661 0.0268456 
3743 2 0.0616467 0.0747209 0.0424574 0.105765 
3023 1 0.0914341 0.00951001 -0.00323439 0.0919843 
151 1 -0.0284214 0.0139224 0.0794593 0.0855301 
43 1 0.0176841 -0.0254984 0.0711296 0.0776036 
3730 2 0.0724018 0.0881745 0.0797269 0.139187 
1454 1 -0.00628173 0.0398565 0.133455 0.139421 
4289 2 -0.00686707 -0.0552048 0.136887 0.147759 
3611 2 0.11608 0.0111371 0.126193 0.171823 
3346 1 0.110094 -0.0332103 0.145756 0.185656 
3460 2 0.100788 -0.0573126 -0.0118837 0.116551 
3199 1 0.0646098 0.124565 -0.103826 0.174559 
3679 2 -0.26136 -0.0208716 0.0390004 0.265077 
100 1 0.00681825 -0.104971 0.075272 0.12935 
608 1 -0.0481091 0.032784 0.0627755 0.0856157 
3586 2 0.0350361 0.0112295 0.0954644 0.102309 
2500 1 -0.120432 -0.0228719 -0.0820687 0.147521 
3188 1 -0.0641822 0.0807704 0.160331 0.190655 
3491 2 0.0203516 0.0159288 0.193462 0.19518 
2931 1 -0.0909531 -0.0745847 0.103423 0.156626 
691 1 -0.0524018 -0.164766 -0.0585794 0.182552 
3493 2 -0.0959967 -0.00958161 0.251148 0.26904 
920 1 -0.0753202 0.120019 -0.270584 0.30544 
717 1 -0.159534 0.0590042 0.199949 0.262511 
174 1 -0.0582245 -0.220608 0.026305 0.229673 
529 1 -0.0134432 -0.196171 0.105276 0.22304 
825 1 -0.0757196 0.0848741 0.0327485 0.118362 
140 1 -0.0400318 -0.0810384 0.145789 0.171535 
3634 2 0.0862919 0.218836 -0.039164 0.238472 
1480 1 0.018929 -0.0926104 0.0880188 0.12916 
2968 1 -0.0949083 -0.114371 0.0257796 0.150841 
3464 2 -0.070106 0.0212391 0.0640862 0.0973293 
98 1 0.073336 -0.218994 0.241193 0.333932 
40 1 0.00842752 -0.0667519 0.082135 0.106174 
133 1 0.0952328 -0.000925256 0.144603 0.173148 
4228 2 -0.0497031 0.0885253 -0.054873 0.115404 
1130 1 -0.0816866 -0.107489 0.0803875 0.157127 
3041 1 -0.0427649 -0.204079 0.0795179 0.22316 
604 1 0.0271263 -0.0238983 0.0932071 0.0999726 
721 1 -0.120106 0.018622 -0.101469 0.15833 
3164 1 0.1509 0.230177 0.128017 0.303547 
64 1 0.0211704 -0.0944058 -0.162215 0.188877 
193 1 0.123043 0.119146 0.0135444 0.17181 
44 1 0.0621086 -0.0335902 0.0203621 0.0734874 
2996 1 0.0592279 0.0769528 -0.136082 0.167176 
4212 2 -0.155973 0.189356 -0.0192594 0.246078 
3279 1 -0.0137382 0.0168405 -0.0110292 0.0243718 
178 1 -0.0536312 0.0820268 -0.0499168 0.109984 
354 1 0.178697 0.037974 0.0928987 0.204951 
257 1 -0.0430137 0.00760929 0.0343724 0.0555836 
563 1 -0.104456 0.155745 -0.041848 0.192143 
949 1 -0.11948 0.0911602 -0.0228093 0.152006 
330 1 -0.0194999 0.217591 0.0959208 0.238594 
600 1 -0.0411973 0.0306648 -0.0563653 0.0762535 
338 1 -0.10706 -0.0263133 0.0283695 0.113838 
4101 2 -0.0662564 0.0935639 -0.0302205 0.118564 
3841 2 -0.0835987 -0.220856 0.0061562 0.236229 
103 1 -0.172859 0.0991784 0.0317497 0.201804 
2981 1 -0.0227055 -0.06376 0.0330702 0.0753294 
3608 2 -0.106201 0.0787471 0.133218 0.187688 
78 1 0.0658328 0.0729094 -0.00281212 0.0982733 
4217 2 -0.0628059 -0.0146706 0.051364 0.0824504 
479 1 -0.0850816 0.0205027 0.027483 0.0917309 
3335 1 -0.0764674 0.00929475 0.0696045 0.103819 
1457 1 -0.0651605 -0.00681085 -0.0634204 0.0911835 
3037 1 -0.0258468 0.114178 -0.0734049 0.138177 
4253 2 0.145106 0.058801 -0.084557 0.177942 
387 1 0.0238087 -0.013078 -0.0427498 0.0506501 
3736 2 -0.014569 0.260749 0.0666731 0.269532 
508 1 -0.0602152 -0.0391236 -0.0447743 0.0846243 
3537 2 0.0505769 -0.0634598 -0.0719282 0.108438 
747 1 -0.126732 0.0707719 -0.049225 0.153274 
497 1 0.0720595 -0.0453264 0.0345639 0.0918788 
958 1 -0.136108 -0.278825 0.0398273 0.312818 
3130 1 0.00120119 -0.0892233 -0.0951746 0.130462 
4163 2 -0.0330494 -0.221326 0.0160177 0.224352 
3394 1 0.0157915 0.0213264 0.104959 0.108262 
4204 2 -0.108824 -0.182836 0.0444242 0.21736 
86 1 0.249353 0.0873591 0.0100731 0.264405 
759 1 0.00229639 0.0436308 0.0643435 0.0777753 
3411 1 -0.036827 -0.0677332 0.0922734 0.120243 
835 1 0.0194844 -0.193871 0.260997 0.325707 
3057 1 -0.0162642 -0.0132127 0.00831712 0.0225449 
3620 2 -0.12224 0.0360955 0.000386522 0.127458 
241 1 -0.131165 -0.0496317 0.0723909 0.157823 
704 1 0.155251 0.041048 -0.139642 0.21281 
3599 2 -0.14581 0.105735 -0.18694 0.25959 
157 1 0.017349 0.0922918 0.059512 0.111178 
54 1 0.123777 -0.0920401 -0.0600109 0.16551 
493 1 0.149899 0.145137 0.0652229 0.218606 
204 1 -0.114507 0.0277157 -0.055311 0.130151 
254 1 0.0450153 0.232959 -0.179543 0.297543 
195 1 -0.0161449 0.0966033 -0.0409607 0.106163 
67 1 0.0950259 0.000547627 -0.082088 0.125573 
2988 1 -0.144756 0.133073 -0.199333 0.279994 
3030 1 -0.380432 0.338881 -0.0996896 0.519141 
4050 2 0.1249 0.103714 0.009853 0.162646 
674 1 0.0341982 0.01203 -0.242376 0.245072 
2004 1 -0.250907 -0.116313 -0.10368 0.295352 
3643 2 0.0118715 0.0254756 -0.0434906 0.051782 
2934 1 0.0937856 0.0429484 -0.0595603 0.119112 
3479 2 -0.113549 0.506182 -0.0658575 0.522926 
3216 1 -0.0535419 -0.0145228 -0.00384617 0.0556097 
234 1 -0.033929 0.0586736 -0.086599 0.109969 
1036 1 0.00289477 -0.0217245 0.0334572 0.0399965 
3369 1 -0.00713463 0.0458121 0.00144515 0.0463868 
3607 2 -0.0697531 0.0750956 -0.0476941 0.113047 
3139 1 0.00219105 0.0235436 -0.0473641 0.0529382 
644 1 -0.207928 0.0219547 -0.0869714 0.226451 
4269 2 0.000330455 0.162088 0.0121155 0.16254 
4089 2 0.105803 0.191758 0.0572585 0.226371 
214 1 0.0499923 0.104103 -0.0755877 0.138022 
640 1 -0.0510693 0.0758941 0.0557191 0.10711 
199 1 -0.0680062 -0.0402122 -0.0182154 0.0810781 
245 1 -0.0121636 0.013229 0.074581 0.0767156 
2758 1 0.0676477 0.100699 0.0245172 0.123764 
3056 1 -0.0464829 -0.0624168 -0.0554612 0.095564 
3468 2 -0.119948 0.0720563 0.115214 0.181257 
1102 1 0.0267942 0.154731 -0.0558015 0.166654 
249 1 -0.0416165 0.0268069 0.0318535 0.0588659 
3096 1 -0.0653393 0.0914714 -0.0257404 0.11532 
240 1 0.0147286 -0.00687669 0.0846165 0.0861637 
181 1 -0.123586 -0.0895498 -0.0272752 0.155037 
46 1 -0.0634243 -0.148639 0.0285739 0.164112 
3211 1 -0.114127 -0.00652289 0.0762166 0.137391 
2684 1 -0.0913114 0.0615014 0.0602772 0.125513 
3603 2 -0.150279 -0.256025 0.173717 0.343962 
3007 1 -0.00500832 0.0662539 0.0213005 0.0697738 
2939 1 -0.0639425 0.178454 -0.0075239 0.189713 
3701 2 0.14392 -0.215898 0.191752 0.322636 
3513 2 -0.0779583 0.0247962 0.0414775 0.091721 
312 1 -0.0935433 -0.0849585 -0.0602338 0.139987 
587 1 0.0515781 0.0309915 0.055967 0.0821771 
134 1 -0.0172318 0.145656 -0.0734415 0.164031 
135 1 -0.0809988 -0.0153604 -0.0643145 0.104561 
3512 2 -0.085683 0.147185 -0.0200626 0.171486 
1179 1 0.0429503 0.0526134 -0.0465786 0.0823557 
559 1 -0.0707674 0.0348947 -0.0789589 0.111625 
2995 1 -0.119131 -0.013623 -0.143467 0.186978 
3003 1 -0.0212229 0.184552 -0.0106642 0.186074 
191 1 0.0525152 0.19517 0.0896967 0.221121 
685 1 0.0170536 0.00597004 -0.0659428 0.0683734 
602 1 -0.180058 0.027382 0.0701257 0.195162 
3092 1 0.002121 0.0201797 0.024142 0.0315366 
4195 2 -0.186349 -0.102339 -0.119447 0.243858 
182 1 -0.138412 -0.0304248 -0.278221 0.312235 
540 1 -0.221524 0.202437 -0.24022 0.384395 
427 1 -0.119455 -0.0184126 -0.131899 0.178902 
4173 2 -0.0244455 0.153744 -0.175633 0.234694 
2950 1 -0.177102 -0.130581 -0.0880907 0.237016 
6 1 -0.331374 0.0905486 -0.0476947 0.346817 
690 1 0.00885881 0.0554662 -0.0614766 0.0832727 
902 1 -0.03335 0.162024 0.00730708 0.165582 
742 1 -0.0261762 -0.0181716 -0.257312 0.259278 
3115 1 -0.176385 0.210129 0.0832925 0.286711 
154 1 0.0330252 0.0842882 -0.0634572 0.110553 
1278 1 0.112594 0.0429267 -0.131375 0.178268 
1149 1 0.157537 -0.0271164 0.29023 0.331341 
2926 1 -0.054194 -0.00201913 0.0709728 0.0893208 
710 1 -0.00679227 -0.0785366 -0.210624 0.224893 
3518 2 -0.0670318 0.289556 0.0318736 0.298918 
580 1 -0.146881 0.0524054 0.227453 0.275781 
446 1 0.0471133 -0.0624991 0.0628744 0.100394 
3408 1 -0.0331747 0.0488363 0.194023 0.202807 
80 1 -0.146298 0.00838363 -0.0489272 0.154491 
95 1 -0.117855 -0.0119984 0.0406481 0.125244 
2977 1 -0.0235393 0.117497 0.096056 0.153578 
2994 1 0.0260486 -0.00679835 -0.0198586 0.0334531 
1331 1 -0.0912987 -0.00344248 -0.0500747 0.104186 
3010 1 0.0192672 0.101547 0.11273 0.152942 
2873 1 0.0205537 0.114602 0.205538 0.236224 
3644 2 -0.0076662 0.0323575 -0.0418447 0.0534486 
216 1 -0.16547 -0.125096 -0.0190188 0.208305 
2960 1 0.0634026 0.0522657 0.140528 0.162787 
215 1 0.000381781 0.0978332 0.0016372 0.0978476 
205 1 -0.337569 0.0476001 0.0921344 0.353139 
694 1 -0.116937 0.129409 0.141256 0.224442 
861 1 -0.137565 -0.0794774 0.0969758 0.186132 
3549 2 -0.109399 -0.00614076 0.119883 0.162412 
3401 1 -0.0540266 0.0462996 0.109302 0.13042 
4014 2 -0.0971181 -0.0532836 0.0797998 0.136525 
1324 1 -0.0526224 0.0499982 0.00118627 0.0725971 
3341 1 -0.0480882 0.0963385 0.0509138 0.119104 
1077 1 0.0508579 -0.0608901 0.0447524 0.0910874 
512 1 -0.0822378 0.285742 -0.0258393 0.298462 
300 1 -0.223366 0.13273 -0.186698 0.319946 
393 1 -0.0333178 -0.0261745 0.105899 0.114061 
2740 1 -0.0118463 0.148431 -0.046898 0.156114 
468 1 0.0478171 0.118783 0.0731383 0.147462 
286 1 -0.0597808 -0.198636 -0.0292707 0.209492 
3197 1 -0.218386 -0.0906613 -0.179102 0.29663 
277 1 -0.233604 0.104951 0.0664708 0.264582 
364 1 0.021518 0.0570219 0.0564163 0.0830502 
1367 1 -0.017609 -0.0794097 -0.137748 0.15997 
411 1 0.0249857 0.00627029 -0.106138 0.10922 
356 1 0.193588 -0.0859632 -0.0927518 0.231233 
771 1 -0.0918166 0.0638801 -0.0501211 0.122569 
3612 2 -0.101412 -0.101655 0.054428 0.153559 
3389 1 -0.26164 -0.00614338 -0.0553843 0.267508 
357 1 -0.0391942 -0.0446009 -0.238457 0.245738 
265 1 0.0312827 -0.0458183 -0.110165 0.123346 
362 1 -0.113183 -0.0333683 -0.0683226 0.136352 
478 1 -0.134811 0.0482398 -0.157127 0.21258 
4159 2 -0.102668 -0.0500042 0.0554719 0.126958 
966 1 -0.0532073 0.0260264 -0.0789497 0.0986987 
3664 2 0.0508092 -0.0686327 0.0803204 0.117232 
2696 1 -0.074487 0.0516071 -0.0797759 0.12073 
309 1 -0.1008 0.149205 -0.257751 0.314418 
780 1 -0.173159 -0.0059175 -0.186514 0.254571 
2710 1 -0.0911504 0.0596649 -0.0274324 0.112343 
3313 1 -0.00162545 -0.0298813 0.0428343 0.0522524 
924 1 0.00870668 0.135989 0.0171437 0.137342 
3290 1 -0.093056 0.0225468 -0.0465922 0.106483 
1354 1 -0.102456 0.0761742 0.0774271 0.149314 
903 1 0.0181691 0.157878 0.000760672 0.158922 
3333 1 0.0123841 0.0652174 -0.025497 0.0711109 
3303 1 -0.0729207 -0.0593793 0.143859 0.171868 
3526 2 -0.00310105 -0.0141278 -0.0426939 0.0450775 
3249 1 -0.0656882 0.118756 -0.0282703 0.138626 
92 1 -0.0378311 0.0429708 0.12646 0.138815 
3379 1 -0.0619958 0.0645014 0.13587 0.162679 
614 1 0.180169 0.119523 -0.0958114 0.236488 
3162 1 -0.0356917 0.0769307 -0.0141161 0.0859738 
462 1 -0.00563974 -0.132482 0.143248 0.195201 
2966 1 0.209034 -0.0121222 -0.0343702 0.212187 
3022 1 0.0931879 0.192849 -0.0619322 0.222958 
750 1 0.0540333 0.0209519 0.0368938 0.0687004 
449 1 -0.0417069 0.0926628 -0.225804 0.247616 
4006 2 -0.117572 -0.108166 -0.0930994 0.184907 
886 1 -0.0619523 0.0951791 0.109299 0.157618 
287 1 -0.182919 -0.108601 -0.0903485 0.231119 
3647 2 -0.108813 0.195429 -0.0549481 0.230331 
2890 1 0.119132 0.0512248 -0.0414521 0.136142 
1285 1 -0.0453253 0.146352 0.161416 0.22255 
3305 1 0.0207657 0.151925 0.00925902 0.153617 
3209 1 0.0591395 -0.0400624 -0.0755561 0.103977 
4318 2 -0.160978 0.00823526 -0.0152601 0.161909 
3409 1 0.0895367 -0.155526 -0.166677 0.244922 
943 1 -0.0477188 -0.000901862 0.0533015 0.0715468 
3883 2 0.0695241 0.0652166 -0.0797888 0.12431 
3531 2 -0.00208537 -0.22949 -0.0663116 0.238888 
3227 1 0.0858244 -0.0639766 -0.0746553 0.130508 
373 1 0.146128 0.0190477 -0.0104158 0.147732 
4297 2 -0.0649999 -0.0271947 -0.109646 0.130333 
3404 1 -0.0432427 -0.159624 0.00488301 0.16545 
398 1 0.128331 -0.0664126 -0.0559521 0.154952 
3221 1 -0.0367089 0.0382842 -0.130813 0.141157 
836 1 -0.0616262 -0.150858 0.142165 0.216257 
394 1 -0.00898399 0.0639688 -0.131755 0.146738 
412 1 -0.0490462 0.0304124 -0.123675 0.136477 
3573 2 -0.160572 0.102013 0.072659 0.20364 
1212 1 -0.0587507 0.0897706 0.0866846 0.13793 
901 1 -0.105203 -0.183107 -0.188012 0.282744 
3360 1 -0.190879 0.0230833 -0.119562 0.226413 
3319 1 -0.0589423 0.0265047 -0.080097 0.102919 
3588 2 -0.0146448 0.141483 -0.0558859 0.152823 
2365 1 -0.144293 -0.00327213 -0.105183 0.178591 
306 1 -0.189201 0.0420513 -0.0941702 0.215484 
3093 1 -0.104124 0.0557405 -0.0153409 0.119097 
2745 1 -0.159735 -0.0284729 -0.0702275 0.176799 
355 1 -0.286105 -0.0130543 -0.107248 0.305824 
3097 1 -0.0381512 0.130696 -0.211189 0.251272 
160 1 -0.259615 0.135733 -0.061099 0.29926 
2961 1 -0.0395002 -0.0159317 -0.0436329 0.0609747 
228 1 -0.123916 0.114789 0.052134 0.176775 
3324 1 -0.0406316 0.137428 -0.115405 0.183999 
951 1 -0.0748966 0.207467 0.140531 0.261536 
2737 1 -0.0578358 0.0870941 0.00321968 0.104598 
2959 1 -0.135482 0.171893 0.0430852 0.223066 
4284 2 -0.201683 0.320674 0.125903 0.399198 
4225 2 0.168955 -0.113028 0.0301539 0.2055 
3483 2 -0.0526822 0.202892 0.0544386 0.216573 
353 1 0.0975226 -0.02211 -0.0296674 0.104306 
2732 1 0.108897 -0.148807 -0.137289 0.229892 
716 1 0.157328 -0.00986347 0.0192513 0.158808 
3094 1 0.0721712 -0.0457386 -0.00575528 0.0856378 
3617 2 0.112132 -0.14728 -0.00406041 0.185152 
206 1 0.00147212 -0.0322813 0.0279183 0.0427046 
71 1 0.0835476 0.0506747 -0.0412694 0.106072 
3676 2 0.106797 -0.0242846 -0.011154 0.110089 
4185 2 0.123295 -0.128278 -0.158115 0.238027 
3561 2 0.076018 0.095787 0.0310507 0.126167 
601 1 0.0745363 0.1628 0.00608101 0.179155 
332 1 -0.0966377 -0.0320155 -0.108292 0.148631 
763 1 0.00762762 0.04007 0.159105 0.16425 
388 1 -0.00779385 0.229029 0.0720016 0.240207 
1313 1 0.0856255 0.114372 -0.103635 0.176502 
444 1 0.0653293 0.0257962 -0.0177949 0.0724571 
3668 2 0.0179972 0.12465 0.0301924 0.129511 
838 1 0.0221634 0.201687 0.0424552 0.207295 
460 1 0.143043 0.0446563 -0.039662 0.155012 
499 1 0.0449285 0.00613587 -0.137945 0.145207 
3548 2 -0.591282 -0.179359 -0.0112291 0.617989 
3281 1 0.113451 0.0254855 0.0157452 0.117339 
3658 2 0.0535366 0.0783132 0.145093 0.173353 
291 1 0.177555 0.00466331 -0.143494 0.228337 
482 1 0.101586 0.0029217 -0.0498542 0.113198 
1314 1 0.0872449 0.121577 0.0364275 0.154012 
3672 2 0.104392 0.0523034 -0.056292 0.129623 
375 1 0.040109 -0.0607264 -0.159476 0.175297 
94 1 0.0619119 -0.0777236 0.0353018 0.105453 
37 1 0.00375112 -0.038814 0.0204369 0.0440257 
3321 1 0.0405491 -0.14509 -0.130878 0.199561 
4309 2 -0.135292 0.000448749 -0.046729 0.143135 
3808 2 -0.0356283 0.0100796 -0.0431632 0.0568686 
4257 2 0.317002 0.38023 -0.353832 0.608492 
3380 1 -0.0205609 -0.0174554 0.0981218 0.101761 
392 1 -0.055866 -0.0627836 -0.033205 0.0903624 
436 1 0.0164615 -0.0453664 -0.154723 0.162075 
792 1 -0.117961 -0.140498 -0.0532034 0.19101 
3293 1 -0.103215 0.112073 -0.0216375 0.15389 
318 1 -0.16863 0.0438737 -0.139527 0.223224 
3392 1 -0.0124128 0.0331143 -0.0273426 0.0447018 
3095 1 -0.215652 0.205184 -0.191547 0.353972 
3150 1 -0.0573729 0.0236996 -0.153831 0.165883 
3320 1 -0.0395652 -0.222251 -0.0357973 0.228566 
3350 1 -0.0581188 -0.04769 -0.0247778 0.0791585 
3314 1 -0.0600616 -0.12128 -0.304727 0.333429 
2861 1 -0.0790427 -0.0722804 -0.22336 0.247713 
3180 1 -0.0432728 0.00589857 -0.0091664 0.0446246 
1449 1 -0.0582996 0.0888081 0.00810151 0.106543 
2479 1 -0.262953 0.15871 -0.1143 0.327716 
3257 1 -0.0345326 -0.14246 -0.290506 0.325394 
4123 2 -0.0513944 -0.0952058 0.00845306 0.108522 
389 1 0.182683 -0.207006 0.0331321 0.278069 
3482 2 -0.0754002 -0.166493 -0.00829172 0.182959 
4116 2 0.0516125 0.0521573 -0.132691 0.151628 
3234 1 -0.0867067 -0.0810128 0.0522117 0.129643 
3266 1 0.061787 0.0368628 -0.337043 0.344637 
3393 1 0.0340145 0.0457519 0.0288082 0.063876 
490 1 -0.0294836 -0.0139658 -0.34064 0.342199 
221 1 0.0643523 0.0934763 0.0664398 0.131504 
3233 1 -0.103776 -0.1987 -0.0233619 0.225382 
3785 2 -0.211206 0.0207896 -0.0693688 0.223276 
626 1 0.0466293 0.0213142 0.0281341 0.0584817 
4271 2 -0.0231498 0.208333 0.0449387 0.214378 
1172 1 0.149674 -0.0651326 0.0304727 0.166052 
652 1 0.294382 -0.0163613 -0.00949631 0.294989 
3568 2 0.118848 -0.0486808 -0.0243328 0.130717 
3433 1 0.198043 0.00308457 -0.0112076 0.198384 
3560 2 0.0608151 0.00677611 -0.0494935 0.0787019 
248 1 0.0381473 0.0322096 0.155757 0.163563 
3419 1 -0.0585038 0.0745111 0.07297 0.119579 
325 1 0.0446571 -0.0202183 -0.100918 0.112194 
292 1 0.0333042 0.0398245 0.0102229 0.0529119 
3444 1 0.0898042 -1.6521e-05 0.00181224 0.0898224 
908 1 0.218803 -0.0411834 0.0656873 0.232133 
3504 2 0.247123 -0.0726168 0.0225889 0.25856 
423 1 0.192146 0.0290501 0.0205509 0.195414 
502 1 0.0207989 -0.0145695 0.0282937 0.0380184 
3435 1 0.0282733 -0.0458706 -0.0420133 0.0683272 
31 1 -0.0780069 0.0222883 -0.284225 0.295577 
439 1 0.0370786 0.150372 0.0253346 0.156934 
3434 1 0.0222446 0.0305464 -0.0386152 0.0540281 
4182 2 -0.113812 -0.0691197 -0.0730943 0.1519 
874 1 0.0324232 -0.0894688 0.0747682 0.121022 
980 1 -0.0134351 -0.124005 0.141772 0.188831 
810 1 0.0806596 0.0215191 -0.038075 0.0917537 
225 1 -0.0366961 -0.0564026 0.0282526 0.0729799 
3331 1 -0.0348695 -0.031694 0.0108115 0.0483454 
4307 2 -0.0396758 0.0693363 -0.0752355 0.109736 
430 1 -0.133833 -0.0801071 0.0926613 0.181423 
4280 2 0.288806 0.327565 -0.253628 0.50501 
416 1 -0.0305887 -0.108738 -0.0218676 0.115056 
365 1 0.00209563 -0.00707762 0.155773 0.155948 
3799 2 0.0978501 -0.121416 -0.272081 0.3136 
2819 1 -0.130239 -0.0328257 0.100636 0.167832 
3535 2 0.0686611 0.129603 -0.00872229 0.146927 
295 1 0.00522804 -0.017788 -0.319987 0.320524 
3339 1 -0.120661 0.239792 0.0671686 0.276714 
382 1 0.0433362 0.162114 -0.264606 0.31333 
2776 1 0.018597 0.154353 0.0244641 0.157382 
2973 1 -0.203455 0.0637992 -0.0906506 0.231693 
957 1 0.224194 -0.0499927 -0.402837 0.463723 
795 1 0.199202 -0.0482099 0.172776 0.268062 
3312 1 -0.0317634 -0.00306537 0.0941272 0.0993894 
819 1 -0.0395396 0.0624144 -0.144389 0.162195 
107 1 -0.179332 0.0199458 -0.0821642 0.198264 
4285 2 -0.0137487 0.190639 -0.238498 0.305637 
496 1 -0.130166 0.111972 -0.0477282 0.178211 
2993 1 -0.389102 0.310235 -0.108001 0.509225 
4256 2 -0.477837 -1.02525 0.341655 1.1816 
471 1 -0.220308 0.311858 -0.104207 0.395791 
517 1 0.0918681 -0.0545875 -0.0092324 0.10726 
279 1 0.0985645 0.120029 -0.00327049 0.155347 
1337 1 0.278471 -0.19599 -0.116952 0.36005 
917 1 -0.0346187 -0.0619317 0.00128694 0.0709622 
4028 2 -0.0849813 0.0591749 0.173109 0.201718 
3322 1 0.0690073 0.149636 0.0447288 0.170744 
3863 2 -0.154365 0.0157085 0.0728106 0.171396 
274 1 -0.0383641 0.0609264 -0.054618 0.0903712 
1091 1 -0.141783 0.0521351 0.0788575 0.170408 
3396 1 0.0397314 -0.0217166 0.143322 0.150305 
4264 2 0.17784 -0.0433743 0.021271 0.184284 
187 1 -0.0766185 0.0129724 0.084486 0.114789 
3678 2 -0.0876324 0.124155 0.133998 0.202606 
2545 1 -0.155308 -0.0462357 -0.121551 0.202566 
3327 1 -0.109579 0.099391 -0.0703327 0.163807 
3674 2 -2.50336e-05 0.20675 0.231642 0.310489 
1418 1 0.110937 0.0831174 -0.120339 0.183567 
443 1 -0.198051 0.0437215 -0.186978 0.275855 
855 1 0.0157084 0.0905819 -0.137735 0.165598 
3476 2 0.0104892 0.0621667 -0.277492 0.284564 
2869 1 -0.174254 -0.0226174 -0.0550101 0.184125 
177 1 0.116124 0.078269 -0.141142 0.198826 
363 1 0.00811502 -0.127896 -0.108619 0.167992 
1450 1 -0.0789359 0.123392 -0.0800419 0.166922 
3559 2 -0.0545559 0.0292414 -0.184731 0.194825 
347 1 -0.0699596 -0.0570632 -0.173046 0.195181 
319 1 -0.168692 0.122346 -0.172434 0.270479 
830 1 -0.0908084 0.13038 -0.127136 0.203491 
937 1 -0.00770794 0.0883555 -0.168662 0.19056 
268 1 0.00979813 0.177989 0.00527264 0.178337 
854 1 0.165252 0.287172 -0.00926929 0.331454 
442 1 0.00250144 0.0378967 -0.286271 0.288779 
875 1 0.146785 0.0834258 0.0255748 0.170762 
1289 1 0.0672602 0.187185 -0.0760458 0.212944 
501 1 0.153567 0.0364667 -0.0974673 0.185507 
3291 1 0.215689 0.0221126 -0.147414 0.262186 
474 1 0.186506 0.103626 -0.122805 0.246179 
3070 1 0.195189 0.104679 -0.248163 0.332628 
964 1 -0.0539856 -0.0737571 -0.14597 0.172226 
793 1 0.135186 -0.0504222 0.0444197 0.150966 
899 1 -0.0149181 -0.0683335 -0.0395303 0.0803409 
3397 1 -0.0321098 -0.0236202 -0.0708944 0.0813325 
3223 1 -0.195926 0.0449183 -0.0107469 0.201296 
208 1 -0.00357515 0.00797822 0.00387367 0.00956237 
3278 1 0.0737885 -0.0158649 -0.026631 0.0800353 
3544 2 -0.00438015 -0.159888 -0.0327902 0.163275 
1430 1 -0.0793917 -0.240177 0.0221541 0.253927 
3200 1 0.0581477 0.0862463 0.02579 0.107167 
757 1 -0.106895 -0.103856 0.126653 0.195585 
822 1 0.226801 -0.156936 0.226998 0.357205 
3192 1 0.0107618 -0.0467374 -0.0856154 0.0981336 
3082 1 0.00442461 -0.012972 -0.0199962 0.0242425 
3383 1 -0.0514926 0.000532944 -0.0810291 0.0960077 
329 1 -0.3208 0.160251 -0.150312 0.388828 
3240 1 -0.482211 -0.200133 0.0388799 0.523538 
113 1 0.150678 0.0397247 0.048236 0.163121 
504 1 -0.0130327 0.0711897 0.187808 0.20127 
85 1 0.165608 0.0438515 0.302066 0.347265 
2795 1 -0.122384 0.0319722 0.158416 0.202721 
404 1 0.00297075 -0.0271311 -0.168936 0.171127 
4143 2 0.00658806 -0.103182 0.0375072 0.109985 
581 1 -0.138624 -0.0661723 0.0413936 0.159088 
3541 2 -0.102902 0.0805574 -0.0324464 0.134652 
786 1 0.0540766 -0.153132 0.000382014 0.1624 
800 1 -0.00646357 -0.177595 -0.146798 0.230502 
367 1 0.0705606 -0.0663079 -0.12575 0.158709 
2687 1 0.041983 -0.00982483 -0.208285 0.212701 
3545 2 0.0476824 -0.039906 -0.196735 0.206327 
491 1 0.0501484 0.0506775 -0.0459413 0.0848155 
4154 2 -0.0410786 -0.024135 -0.15279 0.160046 
4237 2 -0.0154364 -0.0603752 -0.0661546 0.0908838 
2814 1 -0.0394259 0.0629625 -0.134768 0.153887 
1723 1 -0.0146092 0.0961345 -0.18109 0.205545 
3264 1 0.143935 -0.230724 0.10322 0.29087 
440 1 -0.0397178 0.0949362 -0.185748 0.21235 
1409 1 0.251145 -0.00324234 -0.0529979 0.256697 
314 1 -0.143295 -0.0125178 0.175358 0.226805 
431 1 -0.109297 0.042479 -0.166977 0.204038 
968 1 0.434643 -0.0589039 0.26966 0.514879 
801 1 -0.12432 -0.406139 -0.336782 0.542057 
2656 1 0.0398882 0.0340827 -0.0713125 0.0885334 
421 1 0.0271245 -0.0390753 -0.227764 0.232678 
1254 1 -0.00785937 0.0676799 -0.111414 0.130597 
699 1 -0.00244266 0.162315 0.0413411 0.167515 
1304 1 0.179051 -0.0227513 0.0412201 0.185138 
308 1 0.077714 -0.098876 -0.116343 0.171323 
2884 1 -0.0269793 -0.113811 0.0435891 0.124823 
840 1 -0.0946767 -0.0177312 -0.183115 0.206904 
4152 2 -0.094553 0.167786 -0.0660752 0.203613 
461 1 -0.0525512 0.23418 -0.173138 0.295937 
3436 1 -0.0469005 0.009137 0.0774609 0.0910128 
3371 1 0.0247395 0.0708225 -0.167984 0.183975 
486 1 -0.00604817 0.157385 0.00537059 0.157593 
783 1 -0.540445 -0.23623 -0.0789478 0.595078 
3378 1 0.0579801 0.247298 0.111736 0.277494 
647 1 0.171003 0.0244979 0.0597999 0.182806 
402 1 0.135659 0.035878 0.191531 0.237434 
307 1 -0.169775 -0.00785063 0.0263559 0.171988 
781 1 0.0349993 -0.235437 0.0792046 0.250857 
4098 2 -0.144959 -0.321535 0.498081 0.610313 
4298 2 -0.0809484 -0.062611 -0.00502164 0.10246 
128 1 0.0211247 0.102698 0.128565 0.165898 
907 1 0.0315365 0.08873 0.109558 0.144467 
1641 1 -0.0020492 0.125577 -0.129962 0.180732 
1300 1 0.0221608 0.0780788 0.0158652 0.0826989 
1544 1 0.0175116 0.00272141 0.2091 0.20985 
345 1 0.0367772 0.00215506 -0.015451 0.0399492 
891 1 -0.142557 0.0128211 0.0916337 0.169951 
1269 1 -0.0437956 -0.13869 0.0686849 0.160843 
1535 1 0.0283389 0.00113047 -0.0232198 0.0366542 
573 1 0.188607 -0.0230471 -0.0300301 0.192368 
3844 2 0.134187 -0.0228093 -0.201571 0.243222 
631 1 -0.010059 -0.0464399 0.097676 0.108621 
606 1 0.0509461 0.0827184 0.168864 0.194815 
548 1 -0.0795227 -0.161395 0.0735434 0.194373 
1569 1 -0.00514092 -0.342898 -0.0858087 0.353509 
38 1 -0.090135 -0.149059 -0.0100849 0.174483 