ITEM: TIMESTEP
700
ITEM: NUMBER OF ATOMS
4320
ITEM: BOX BOUNDS pp pp pp
0.0000000000000000e+00 1.9309999999999999e+01
0.0000000000000000e+00 1.9309999999999999e+01
0.0000000000000000e+00 9.6549999999999994e+00
ITEM: ATOMS id type c_displacement[1] c_displacement[2] c_displacement[3] c_displacement[4] 
3196 1 0.0782746 0.0522453 0.131941 0.162065 
381 1 0.0170526 0.0436074 -0.0528199 0.0705857 
327 1 -0.0442925 0.00207944 0.116384 0.124544 
484 1 0.0929904 0.20313 0.0786549 0.236845 
728 1 -0.0271269 0.0434011 -0.0703688 0.0870132 
817 1 0.00886681 -0.129239 -0.0422246 0.13625 
3006 1 0.0345726 -0.0022761 0.130337 0.134863 
3679 2 -0.0985949 -0.0599633 0.0127682 0.116102 
59 1 0.0409161 0.0515619 0.0945614 0.115216 
2945 1 -0.0225456 0.166537 -0.0701918 0.182126 
3230 1 0.0966345 0.0628006 0.0163572 0.116403 
3651 2 0.0278175 0.141528 0.0510311 0.152997 
66 1 0.0005569 0.143847 -0.0385246 0.148918 
400 1 -0.117229 0.0937605 -0.136207 0.202697 
677 1 0.0225763 0.0786099 -0.00322475 0.0818511 
623 1 0.0726369 0.0446825 -0.147363 0.17026 
87 1 0.0357128 0.0724349 -0.150212 0.170546 
3199 1 0.131087 0.138471 -0.103095 0.216764 
727 1 0.0794371 0.0291608 -0.0430122 0.0949245 
688 1 -0.0161567 0.0817912 0.089914 0.122619 
58 1 0.048633 -0.0667404 -0.11587 0.142286 
3514 2 -0.146436 0.15216 -0.270582 0.343236 
18 1 0.170631 0.0876844 0.153917 0.245955 
3618 2 0.149215 -0.01598 -0.16468 0.2228 
190 1 -0.132198 0.0297967 -0.184928 0.229265 
298 1 0.0460558 -0.130231 -0.0589927 0.150204 
73 1 -0.0683565 -0.0248893 0.0522373 0.0895591 
110 1 -0.0106915 -0.0988329 0.0269657 0.103002 
180 1 -0.00258452 -0.00192992 0.0718445 0.0719169 
106 1 -0.112763 -0.0165256 0.139407 0.180064 
217 1 -0.0421337 0.0206393 0.124891 0.133413 
775 1 -0.0313489 0.0270243 -0.0491035 0.0642201 
3627 2 0.0474663 0.0209476 0.0484801 0.0710082 
608 1 -0.073754 0.0675334 -0.0953023 0.138141 
2478 1 0.171088 0.142326 -0.0521955 0.228588 
3118 1 -0.0976268 0.077673 -0.116171 0.170469 
562 1 -0.00996042 0.119211 -0.109989 0.162505 
70 1 0.0194376 0.190227 -0.0624256 0.20115 
121 1 0.00993089 0.113262 -0.141519 0.181533 
1118 1 -0.0784162 -0.183876 -0.118927 0.232601 
210 1 0.0684157 4.24358e-05 0.0293729 0.0744545 
232 1 -0.0719774 0.120041 -0.0335715 0.143936 
4214 2 0.110772 0.110551 -0.00939261 0.156781 
4170 2 0.064253 0.00759121 -0.0588057 0.087431 
65 1 -0.00703256 -0.0206962 -0.0165944 0.0274438 
226 1 0.199408 -0.0517517 0.0898468 0.224754 
532 1 0.0202994 0.0813673 0.000713969 0.0838643 
3578 2 -0.00835677 -0.0657324 -0.090458 0.11213 
473 1 0.0303995 -0.000721054 -0.0803394 0.0859015 
246 1 0.0539738 0.00432256 0.0230273 0.0588397 
4034 2 0.00633142 0.196319 -0.0727519 0.209462 
155 1 -0.179765 -0.0255671 -0.0350691 0.18493 
3460 2 -0.00671978 0.249715 0.193864 0.316206 
4071 2 0.114867 0.187335 0.281929 0.357453 
2838 1 0.228905 0.231652 0.0737096 0.333906 
536 1 0.134551 0.0473902 0.0851229 0.16612 
894 1 -0.0330147 -0.092375 0.0116423 0.0987859 
289 1 -0.0680351 -0.102338 0.0356468 0.127955 
351 1 -0.0521314 0.107001 0.0557074 0.131416 
197 1 0.0338216 0.0103642 -0.0429495 0.0556415 
3135 1 0.0336094 0.188729 0.0807015 0.207993 
303 1 0.0818208 0.131792 0.0356159 0.159161 
1415 1 0.0179687 0.0476719 0.093052 0.106086 
527 1 -0.270021 0.0132548 0.299507 0.403474 
3002 1 -0.149364 0.293681 0.0892099 0.341345 
3189 1 0.111521 -0.0032916 0.035094 0.116959 
712 1 -0.0531664 -0.0350561 0.0310358 0.0708436 
718 1 0.0122415 -0.0547513 0.0718789 0.0911818 
3469 2 0.0475563 0.143018 0.0945966 0.177945 
4177 2 0.094121 -0.512502 0.299611 0.601069 
93 1 -0.0835995 0.258274 0.211734 0.344275 
569 1 0.0974752 0.0272274 -0.0139818 0.102168 
639 1 -0.0959713 0.159049 0.166621 0.249539 
21 1 -0.0286584 -0.0133465 0.0837621 0.0895294 
96 1 -0.0314055 -0.0210904 -0.0913823 0.0989032 
3353 1 -0.085593 -0.235875 0.000590238 0.250925 
823 1 0.00219885 0.0558126 0.0234835 0.0605917 
2596 1 0.0349209 -0.18214 0.0453546 0.190923 
50 1 0.0653799 -0.0496329 0.156597 0.176806 
2495 1 0.179311 0.16011 0.138283 0.277326 
28 1 -0.0674648 0.0716636 0.0581737 0.11433 
3055 1 0.182818 0.0794089 0.012688 0.199723 
12 1 0.0824125 0.129128 -0.105308 0.185891 
3346 1 0.169881 0.100355 -0.033547 0.20014 
738 1 0.0304036 0.158044 0.0102936 0.16127 
2453 1 0.131304 0.105942 -0.12176 0.208062 
3167 1 -0.0463666 0.0609428 0.000704774 0.0765792 
339 1 0.0134622 0.318139 0.0504112 0.322389 
988 1 0.0926404 0.023074 -0.0562526 0.110811 
3251 1 -0.0218383 0.00364442 0.0850161 0.0878518 
594 1 0.0885854 0.174748 -0.0667544 0.206979 
390 1 0.0796638 0.0370491 -0.00780996 0.0882041 
203 1 -0.0124004 0.0026095 0.0815919 0.0825701 
3582 2 -0.00218742 0.367819 -0.0522969 0.371524 
3632 2 0.073089 0.166587 -0.19838 0.269161 
231 1 0.0922977 0.0302011 0.0181684 0.0987981 
323 1 0.0636656 0.179964 0.044106 0.195923 
3244 1 0.0473998 0.173155 -0.0868619 0.199435 
118 1 0.210889 0.12283 -0.122707 0.273164 
2735 1 -0.000512838 0.0508071 -0.019534 0.0544353 
2768 1 0.0806811 0.0875237 0.0720705 0.139155 
2960 1 -0.0851902 -0.027437 -0.0389063 0.0975903 
29 1 0.0837308 0.0760536 0.0276836 0.116453 
753 1 0.125154 -0.207643 0.164007 0.292706 
3467 2 0.0239809 -0.0436072 -0.0411987 0.0646066 
4289 2 -0.21182 0.133736 0.037748 0.253334 
3712 2 0.0146012 0.137144 -0.182813 0.229003 
3478 2 0.15056 0.131607 0.0842124 0.21698 
725 1 0.0116978 0.0348297 0.0862962 0.0937922 
1133 1 0.176043 0.212675 0.030208 0.277731 
3611 2 0.197397 0.0231773 0.0279375 0.200707 
4187 2 -0.0733637 -0.162755 -0.146723 0.231083 
437 1 0.0285071 -0.010239 -0.0406636 0.0507052 
53 1 0.133879 0.00213189 0.0397148 0.139662 
593 1 0.026135 -0.0261828 0.109477 0.115559 
609 1 0.138552 -0.112266 0.068266 0.190946 
3040 1 0.0857408 -0.0614331 -0.0297517 0.109593 
255 1 -0.0141474 -0.105006 -0.0229461 0.108411 
167 1 0.0534502 0.0967841 0.293513 0.313646 
1178 1 -0.0384794 0.143135 -0.0747868 0.166017 
610 1 0.0557953 -0.0309422 0.210665 0.220114 
247 1 0.030576 -0.0881041 0.173866 0.197298 
89 1 -0.127362 0.0989478 0.18601 0.246194 
3149 1 -0.0532759 0.16181 0.312277 0.355722 
550 1 -0.0852887 -0.0267126 0.0669144 0.111648 
147 1 -0.0254407 0.052256 0.144798 0.156027 
3554 2 -0.10117 -0.0423042 0.0238158 0.112215 
3786 2 -0.14593 0.141582 0.091188 0.222837 
5 1 -0.0281781 0.174057 0.225591 0.286324 
2591 1 0.0260075 0.100038 0.108342 0.149739 
3232 1 0.0727228 0.00168825 -0.152134 0.168631 
1215 1 0.0886728 -0.0128684 -0.0638613 0.110031 
859 1 0.0525751 0.101715 0.0764434 0.137672 
3152 1 -0.0900986 0.0384036 0.0233223 0.10068 
553 1 -0.0200437 -0.0644048 -0.0682632 0.0959666 
920 1 -0.0297276 0.0186049 0.111233 0.116631 
2461 1 -0.0445044 0.0380813 -0.118198 0.131915 
23 1 -0.0393952 0.218314 -0.0376572 0.225014 
3743 2 0.00777883 0.136585 0.010705 0.137225 
3023 1 -0.0553216 0.200608 -0.0443341 0.212767 
151 1 0.0424415 0.0180721 0.0520924 0.0695809 
43 1 -0.012536 0.00739655 -0.133661 0.134451 
3730 2 -0.0311254 0.0516098 -0.057559 0.0833391 
424 1 0.0823945 0.216653 0.0211061 0.23275 
4053 2 0.033512 0.0242511 0.0130864 0.0433869 
1160 1 -0.211266 -0.134349 0.406467 0.477387 
546 1 -0.0735493 0.116861 0.00415283 0.138142 
1454 1 -0.0602731 0.19373 -0.100046 0.226215 
559 1 -0.075298 0.0249063 -0.0514537 0.0945389 
2500 1 0.0799336 0.0476445 -0.111674 0.145363 
3188 1 0.108333 0.104306 -0.0144241 0.151076 
3491 2 -0.043166 0.208994 -0.0273508 0.215151 
717 1 -0.0160958 0.0264247 0.0837242 0.0892585 
2931 1 -0.188765 -0.162633 -0.0170484 0.249744 
691 1 -0.0374654 -0.0219662 0.000103597 0.0434302 
215 1 -0.141884 0.0640906 -0.0454985 0.1622 
174 1 -0.0551521 -0.254538 0.0837763 0.273587 
3493 2 0.137279 0.0337824 0.12387 0.187964 
3634 2 0.0665877 0.145197 0.205318 0.260137 
2994 1 -0.0663953 -0.141917 0.0296593 0.159463 
529 1 0.00454575 -0.139794 0.0292884 0.142902 
1480 1 0.0205729 0.0719376 0.154998 0.172112 
2968 1 0.017159 0.0628592 0.101266 0.120418 
3464 2 -0.0899788 -0.0369899 -0.00629569 0.0974888 
98 1 0.106493 -0.147288 0.114412 0.214767 
216 1 0.0494968 0.0728828 -0.00762027 0.0884303 
40 1 0.0514639 0.0362865 0.0849594 0.105751 
1130 1 0.0337326 0.0331003 0.172315 0.178678 
140 1 0.1656 -0.0591274 0.139433 0.224413 
3041 1 0.0382534 -0.0197816 0.0169405 0.0462776 
604 1 0.00242671 -0.0200286 0.0797596 0.0822717 
721 1 -0.152721 0.0815402 0.0276285 0.175317 
3164 1 0.112066 0.201868 0.127112 0.263566 
1179 1 0.071776 0.0952286 -0.00475435 0.119344 
103 1 -0.03491 0.138708 -0.130549 0.193653 
64 1 0.0145295 -0.0467388 -0.135555 0.144121 
193 1 0.0870598 0.14 -0.0600624 0.175462 
44 1 0.0639725 -0.131404 -0.0243884 0.14817 
2996 1 0.0870887 0.1246 -0.0750302 0.169526 
4212 2 -0.177876 0.18042 0.0129575 0.253692 
3279 1 -0.126767 0.00066511 0.0127357 0.127407 
257 1 -0.0668747 0.134903 -0.0103587 0.150925 
178 1 -0.00814116 0.0693057 -0.161946 0.176341 
330 1 -0.152966 0.300714 0.145937 0.367594 
825 1 0.0381816 -0.122637 0.126206 0.180071 
1991 1 0.050952 0.0346485 -0.0817926 0.102404 
600 1 -0.116454 0.148944 -0.0465522 0.194712 
338 1 -0.0482012 0.056122 0.00499859 0.0741486 
4101 2 0.00547166 0.12246 0.0849434 0.149137 
949 1 0.0244147 0.126416 -0.032574 0.132809 
3608 2 -0.0224935 0.104016 0.0995616 0.145732 
2995 1 -0.253102 -0.11243 -0.032106 0.278805 
4217 2 -0.111034 0.0234798 0.0282157 0.116944 
479 1 -0.0582236 0.143727 -0.00112526 0.155076 
3335 1 0.0360799 -0.041137 -0.0749781 0.092821 
1457 1 0.0986106 0.058998 0.0333219 0.119646 
3037 1 0.00714857 0.24599 -0.0565798 0.252514 
4253 2 0.195513 -0.00838165 -0.140298 0.240788 
387 1 0.0185345 -0.121929 0.0249673 0.125832 
3736 2 -0.126033 0.250219 0.0865916 0.293244 
3394 1 -0.0870076 -0.129626 -0.0302105 0.159016 
508 1 -0.0478603 0.0578852 0.0765896 0.107272 
3537 2 -0.0333694 -0.0583075 -0.11049 0.129311 
747 1 -0.095259 0.112647 -0.0119221 0.148006 
497 1 -0.0478343 -0.049168 0.0404701 0.0796457 
958 1 -0.10951 -0.0402379 0.0569376 0.129821 
3130 1 -0.068577 -0.0671484 -0.0590409 0.112683 
4163 2 -0.112212 -0.2654 0.109228 0.308155 
3643 2 -0.021656 0.167199 0.0622976 0.179737 
133 1 0.0108584 0.106951 0.259182 0.280592 
4204 2 -0.233378 0.0202473 0.0439805 0.238347 
86 1 0.156129 0.0733501 0.00422016 0.172552 
759 1 0.0499963 -1.22758e-05 0.00744131 0.0505471 
3411 1 -0.0516613 0.0347432 0.157658 0.169505 
835 1 -0.0294677 -0.0324493 0.240061 0.24403 
3057 1 -0.0769987 0.0299445 0.0528637 0.0980818 
3620 2 -0.0777719 -0.0305493 -0.00488401 0.0836994 
241 1 -0.212197 0.127743 0.198667 0.317513 
704 1 0.00982151 0.0772674 0.0480423 0.0915137 
3599 2 -0.075154 0.13848 -0.0791401 0.176318 
157 1 0.114145 0.00989739 0.0755764 0.137254 
54 1 -0.0339566 -0.0728803 0.033434 0.0870771 
493 1 -0.144583 0.29031 0.0360193 0.326316 
204 1 -0.114353 0.0628469 0.0174898 0.131652 
254 1 -0.101187 0.0508191 -0.134421 0.175756 
67 1 0.0905614 0.10264 -0.0188101 0.138167 
2988 1 -0.202855 0.224501 -0.166399 0.34531 
3030 1 -0.265753 0.314955 0.00146953 0.412096 
4050 2 0.120181 0.257892 -0.142099 0.318031 
3479 2 0.114357 0.409136 0.050998 0.427868 
674 1 -0.0619524 -0.0637607 0.115394 0.145669 
2004 1 -0.126262 0.0367954 0.0384965 0.137033 
4228 2 0.043578 -0.0615399 -0.0973183 0.123114 
3216 1 -0.0645178 0.0915087 -0.0460803 0.121078 
234 1 0.0791948 0.0482042 -0.0112581 0.0933928 
1036 1 0.126913 -0.000948004 -0.0970315 0.159759 
3369 1 -0.0609233 0.172124 0.0745924 0.197237 
3607 2 -0.121081 0.00433757 0.005314 0.121275 
3139 1 0.0240567 0.0289473 0.0560441 0.0675101 
644 1 -0.244521 -0.0613135 -0.0174589 0.252694 
1278 1 0.0495099 -0.0535799 -0.0732575 0.103386 
4269 2 -0.119711 0.0958693 0.0991308 0.182616 
3007 1 -0.114687 0.00976939 0.142693 0.18333 
354 1 0.110921 0.109101 -0.0193377 0.156781 
4089 2 0.117649 0.0396136 0.0596366 0.137721 
214 1 0.174402 -0.0565414 0.0657315 0.194766 
640 1 -0.0847345 -0.0515023 0.0230463 0.101802 
199 1 -0.0140047 -0.0869423 0.0589593 0.105978 
245 1 -0.034283 -0.129021 0.261896 0.293957 
2758 1 -0.0540711 0.032173 0.0215963 0.0665221 
3056 1 -0.0734701 -0.224366 -0.0187172 0.236829 
3468 2 -0.129502 -0.151804 0.149553 0.249361 
563 1 -0.0298404 -0.0859359 0.0167069 0.0924908 
2977 1 0.067068 0.0127065 -0.0238925 0.0723217 
1149 1 -0.0213228 -0.0706423 0.00665709 0.0740899 
3916 2 -0.210226 0.0602788 0.250162 0.33228 
249 1 -0.106679 -0.0373034 0.0792195 0.138013 
3096 1 -0.122082 0.0952729 -0.0228586 0.156536 
240 1 -0.0194189 -0.0413309 0.0992705 0.10927 
181 1 -0.0823998 -0.0640665 -0.0350881 0.110115 
46 1 -0.0775486 -0.0714463 0.00768329 0.105723 
3211 1 -0.0457932 -0.0902471 -0.0221403 0.103594 
2684 1 -0.0851416 -0.0914128 0.0237588 0.127161 
95 1 0.0369573 -0.0943461 0.0538877 0.114765 
22 1 -0.0124841 0.125866 -0.0922576 0.156555 
3512 2 0.00694757 0.0709582 -0.0549222 0.0899988 
3603 2 -0.178504 0.0204412 -0.102438 0.206821 
3701 2 -0.0739538 -0.0494408 0.0289111 0.0935383 
3513 2 0.00540021 0.140206 2.22108e-05 0.14031 
312 1 -0.14661 -0.0475642 0.0231283 0.155858 
587 1 0.0620882 0.0760346 -0.0361261 0.104601 
134 1 0.0391346 0.183374 0.0318761 0.190194 
135 1 -0.161116 -0.0409458 -0.170737 0.238298 
3003 1 -0.0775354 0.0649687 0.0461452 0.111185 
191 1 -0.0593522 0.0672332 0.102535 0.136222 
685 1 0.0138262 0.135966 -0.0415685 0.142849 
602 1 -0.242556 0.0953914 -0.0304439 0.262411 
195 1 -0.0451452 0.185171 0.103819 0.217037 
3092 1 -0.0565252 0.0253373 0.0235402 0.0662663 
4195 2 -0.272386 -0.134283 -0.0576148 0.309104 
80 1 -0.125262 -0.0202597 -0.0321599 0.130902 
540 1 -0.162603 0.0341475 -0.0684694 0.179705 
2981 1 -0.110669 -0.0641871 -0.035638 0.132807 
427 1 -0.172064 0.125646 -0.0083146 0.213219 
4173 2 -0.140996 -0.240034 0.125203 0.305241 
2950 1 -0.16185 -0.0877294 -0.0119366 0.184484 
6 1 -0.0530064 -0.0135742 0.00138438 0.0547344 
182 1 0.012055 -0.146382 -0.086766 0.170591 
690 1 0.0375635 -0.0525234 0.0379142 0.0748812 
3408 1 -0.191979 0.0498459 0.121239 0.232463 
902 1 0.0745418 -0.0627136 0.00674593 0.0976473 
154 1 -0.11855 0.0204826 -0.113864 0.165646 
710 1 -0.109234 0.00997537 -0.18955 0.218999 
3115 1 -0.138215 0.0470882 0.0312988 0.149333 
742 1 -0.0966379 0.0457885 0.0183703 0.108503 
2926 1 -0.164106 -0.129201 -0.0123055 0.209225 
446 1 0.0396542 0.044936 0.102663 0.118876 
580 1 -0.0231372 0.0705063 0.0885662 0.115544 
3518 2 -0.134483 0.094998 -0.122087 0.204977 
2939 1 0.0740536 0.132622 -0.00358836 0.151939 
3841 2 -0.0493936 0.0688336 -0.000100495 0.0847219 
2934 1 0.0161966 -0.0972632 0.0640628 0.117586 
237 1 0.0335416 0.101015 -0.0769521 0.131342 
233 1 0.11881 -0.070637 0.278759 0.311146 
78 1 0.128506 0.123178 0.0442598 0.183428 
187 1 0.0130042 -0.0543298 0.0940885 0.109423 
143 1 0.0572641 0.0530183 0.0755955 0.10865 
2936 1 -0.0632943 0.220931 0.0890107 0.246454 
205 1 -0.0960455 0.142829 -0.0254434 0.173989 
694 1 -0.14964 0.230717 0.0902829 0.289437 
861 1 -0.12264 0.235534 -0.147812 0.303916 
3549 2 -0.0919689 -0.0686223 0.05212 0.126031 
4014 2 0.0749085 -0.0522375 0.0215194 0.0938249 
3401 1 0.0216116 0.17031 -0.0119313 0.172089 
3808 2 0.0488921 0.0879519 -0.0650926 0.119846 
614 1 0.0980755 -0.00491747 -0.0723841 0.121994 
3341 1 -0.00902726 0.059313 -0.106564 0.122292 
512 1 0.0517592 0.224064 -0.00556521 0.230032 
300 1 -0.0650155 0.107831 -0.101584 0.161783 
393 1 -0.034136 0.19497 -0.044822 0.202947 
2740 1 -0.083444 0.166262 0.0601035 0.195496 
221 1 -0.0497592 0.119232 -0.0860589 0.155237 
4006 2 -0.382677 -0.285451 -0.0107718 0.477535 
286 1 0.0867764 -0.093248 -0.0544427 0.138526 
886 1 0.0187562 0.125825 0.0290331 0.130486 
277 1 -0.136885 -0.0497455 0.0220937 0.14731 
364 1 -0.178735 -0.0727333 0.234213 0.303467 
1367 1 -0.0183581 0.0777083 -0.0388428 0.0887939 
411 1 -0.145431 0.121472 0.0687001 0.201557 
3658 2 0.0552917 0.155952 0.352087 0.389029 
356 1 0.121114 -0.0900968 0.13038 0.199462 
626 1 0.0725354 0.00699993 -0.0548232 0.0911919 
357 1 -0.155591 -0.00462775 0.00318234 0.155692 
265 1 -0.0487472 0.145632 -0.00351026 0.153614 
3389 1 -0.0234186 -0.195186 0.0483476 0.202444 
362 1 -0.101043 0.179074 -0.0366831 0.208861 
478 1 -0.177911 0.165177 -0.0202207 0.243608 
4159 2 -0.242412 0.0210111 0.00313376 0.243341 
2696 1 -0.140303 -0.0276399 -0.0152504 0.143811 
966 1 -0.153272 0.0574332 0.0465299 0.170165 
3612 2 -0.0267718 0.0683346 0.0490327 0.0882641 
3392 1 -0.189261 -0.00579027 0.103178 0.215637 
780 1 -0.0543268 0.0424918 0.0204843 0.0719483 
924 1 0.0558836 0.0158781 0.0441118 0.0729448 
2710 1 0.0889505 0.0549281 0.00944468 0.104969 
3313 1 0.0691658 0.0656691 -0.0589885 0.112143 
433 1 0.0122836 0.0444058 0.069615 0.0834806 
771 1 0.00201884 0.0346614 -0.0892753 0.0957892 
3333 1 0.0389556 -0.0277777 0.107846 0.117982 
3303 1 -0.0636503 -0.0670888 0.112206 0.145404 
3526 2 -0.14334 0.0519059 0.0410276 0.157873 
3249 1 0.0310856 0.116241 0.00393115 0.12039 
92 1 -0.241553 -0.012977 0.383954 0.453803 
3379 1 0.0755857 -0.0142863 0.0314155 0.0830917 
1449 1 0.065366 0.0536016 -0.0287951 0.0893028 
903 1 0.116118 0.10565 0.30857 0.346209 
1077 1 0.0367103 0.0962927 0.0543409 0.116503 
462 1 -0.0866881 0.00549311 0.0950263 0.128744 
2966 1 0.222574 0.0381391 -0.0662866 0.235346 
3022 1 0.0240893 0.251015 -0.204922 0.324933 
750 1 -0.0303103 0.0318614 0.0189862 0.0478993 
3162 1 0.0275587 0.193469 -0.0221608 0.196674 
449 1 0.0434866 0.096317 -0.221341 0.245275 
3482 2 -0.111594 -0.0441187 -0.0138025 0.12079 
287 1 -0.0425381 0.00940151 -0.133134 0.140081 
3647 2 -0.0808738 0.26691 0.041915 0.282025 
2890 1 -0.0966238 0.162193 0.0532084 0.196148 
1285 1 -0.0216603 0.247912 0.143438 0.287235 
943 1 -1.13934e-05 0.0131867 0.0864335 0.0874337 
3305 1 0.114603 0.172634 0.108743 0.234011 
3209 1 0.123124 0.0292341 -0.105365 0.164669 
4154 2 -0.156358 0.21079 -0.0152903 0.262896 
3257 1 0.103157 -0.118647 -0.00804374 0.157426 
4318 2 -0.327412 0.0397262 0.110599 0.347863 
3883 2 -0.0289872 0.007456 0.0741423 0.0799558 
3531 2 -0.0223571 -0.2668 0.0608434 0.274562 
3227 1 0.0570522 -0.0172708 0.152604 0.163833 
373 1 0.216998 0.0330156 0.00851064 0.21966 
4297 2 0.0192153 0.0268917 0.184792 0.187724 
3404 1 0.0281038 -0.0492555 0.0461901 0.07314 
398 1 -0.0719871 0.0336079 0.0471627 0.0923903 
2732 1 0.0221101 -0.082377 0.00617931 0.0855162 
3221 1 0.162015 -0.0258292 0.00936694 0.164328 
836 1 -0.0733811 -0.104139 0.10492 0.165039 
309 1 -0.117818 0.0486107 -0.0161603 0.128472 
394 1 0.105992 0.0601008 0.0545393 0.133495 
412 1 -0.022853 0.0822907 0.0225861 0.0883411 
1212 1 -0.0671271 0.0265777 -0.0279617 0.0774228 
3573 2 -0.139736 0.010928 -0.0121598 0.14069 
3360 1 -0.184293 0.0548031 -0.177437 0.261631 
3319 1 -0.109948 0.0700858 0.0128739 0.13102 
3588 2 0.0342228 0.0717772 0.0814845 0.113855 
2365 1 -0.0445136 -0.0135389 -0.0483549 0.0671041 
306 1 -0.118718 0.0786829 0.00181777 0.142437 
3093 1 -0.038064 0.0424723 -0.110423 0.124282 
2745 1 -0.0126606 -0.0432815 -0.109345 0.118279 
355 1 -0.0436347 -0.0508657 -0.0523105 0.0850159 
3097 1 0.0635346 0.128276 -0.0554391 0.153509 
3192 1 0.0358231 -0.0552446 0.0234049 0.0698788 
228 1 -0.161952 -0.0136105 0.110478 0.196517 
3324 1 0.0767058 0.190023 -0.00379812 0.204956 
951 1 0.0881285 0.173359 0.0897815 0.214198 
2737 1 -0.152439 -0.0422193 -0.0141835 0.158812 
2959 1 -0.0229829 0.215687 -0.0501107 0.222621 
4284 2 -0.00319241 -0.0246981 0.243153 0.244425 
4225 2 0.12005 0.0796706 0.00718089 0.14426 
3380 1 -0.0031506 -0.0536253 0.0236542 0.0586951 
1354 1 -0.0258483 -0.0337302 0.0991882 0.107908 
716 1 0.267339 0.0906041 -0.213249 0.353772 
353 1 0.139553 0.0687423 0.00569118 0.15567 
601 1 0.090804 0.241378 -0.0258072 0.259181 
3094 1 -0.0237416 -0.05705 -0.0319427 0.0695608 
3617 2 0.0824556 -0.0711716 -0.0295766 0.112868 
206 1 0.0576388 0.0094555 0.00840662 0.0590111 
71 1 0.173393 0.0125896 -0.0114651 0.174227 
3676 2 0.0386066 0.0657122 -0.0102464 0.0768996 
4123 2 -0.0845738 -0.0367874 0.0879665 0.127453 
4185 2 0.102203 -0.166709 0.0338564 0.198453 
3483 2 0.00882393 0.0477019 0.0372144 0.0611412 
763 1 0.065628 0.0305166 0.160033 0.175638 
3561 2 0.126831 0.0995855 -0.0575216 0.171208 
3409 1 -0.0907017 -0.140242 -0.016795 0.167859 
388 1 -0.0272048 0.0692328 0.144021 0.162097 
1313 1 0.119329 0.121319 0.0261831 0.172172 
444 1 0.0157958 0.0517623 -0.0186258 0.0572343 
3668 2 0.0250844 0.157085 0.028865 0.161673 
838 1 -0.000868349 0.0714357 -0.00591521 0.0716854 
460 1 0.125576 -0.0479437 0.11604 0.177576 
499 1 0.00625979 0.0678143 -0.0468304 0.0826501 
3548 2 -0.514859 -0.151622 -0.00159096 0.536723 
291 1 0.0596952 0.0515225 -0.0661568 0.102931 
482 1 0.0810802 0.0424507 0.154909 0.179925 
1314 1 -0.0546468 0.0784551 0.053476 0.10955 
3672 2 0.189245 0.0879184 0.0927575 0.228357 
375 1 0.0795389 -0.00275783 0.0334702 0.0863383 
94 1 0.111775 0.0198293 -0.0472723 0.122969 
3281 1 0.0164906 0.00476994 0.0611838 0.0635464 
37 1 -0.0296994 0.0752878 0.133048 0.15573 
3321 1 0.0269035 -0.0852095 0.0565367 0.10574 
2961 1 0.0608831 0.0666193 -0.0701288 0.114293 
3393 1 0.0074777 -0.00585624 -0.0929697 0.0934536 
901 1 -0.0806368 -0.0920673 -0.142425 0.187786 
4309 2 -0.0853048 -0.0400707 0.0935526 0.132796 
392 1 -0.00528318 -0.0137524 0.110656 0.111633 
436 1 0.0545371 -0.062649 0.0330408 0.0893918 
792 1 -0.091196 -0.00793219 0.0226775 0.0943075 
3293 1 -0.0406816 0.0633457 -0.0171103 0.0772038 
3320 1 -0.0720276 -0.217101 0.0178249 0.229431 
3095 1 -0.182082 -0.0125248 -0.104402 0.210263 
318 1 -0.111631 -0.0719853 0.111783 0.173606 
3350 1 -0.112834 -0.253607 0.151603 0.316277 
3314 1 -0.0355702 -0.0325901 -0.135144 0.143496 
2861 1 -0.010926 -0.219787 -0.0397581 0.223621 
3180 1 -0.0690915 -0.0202152 -0.0402188 0.0824611 
3150 1 -0.0731848 -0.0884327 -0.0130153 0.115524 
2479 1 -0.0333637 0.00583443 -0.00151811 0.033904 
160 1 -0.292543 0.10397 0.158449 0.348564 
100 1 -0.0142523 0.0427581 -0.0745956 0.0871544 
389 1 0.157304 -0.189806 -0.0210492 0.247414 
1324 1 0.0105152 0.109429 0.0966835 0.1464 
483 1 -0.0766472 0.0751719 0.184108 0.213123 
4271 2 0.0647246 0.10047 0.0875501 0.148151 
1172 1 0.135095 -0.0395296 0.0516025 0.14992 
652 1 0.0379417 -0.096893 0.00448407 0.104153 
3568 2 0.0712716 -0.0688868 0.0662484 0.119222 
3433 1 0.181018 -0.0738919 0.0132439 0.195967 
3419 1 -0.0206575 -0.018571 0.0334311 0.0434655 
248 1 0.125382 0.0304272 0.0717823 0.147646 
3560 2 0.106947 -0.119524 0.0373931 0.164687 
1304 1 0.246988 -0.0209932 0.0846619 0.261938 
3234 1 -0.0906983 0.00903319 -0.139518 0.166652 
917 1 0.0493747 -0.110033 -0.0301405 0.124312 
2969 1 0.31944 -0.00303732 0.196861 0.37524 
325 1 0.0357489 0.121673 0.166072 0.208955 
292 1 0.070259 -0.107495 0.0137685 0.129156 
3444 1 0.108061 0.0840233 0.0407556 0.142822 
908 1 0.138497 -0.0452138 0.010201 0.146047 
3504 2 0.316407 0.00556003 0.102717 0.332709 
423 1 0.207569 0.0345875 -0.039901 0.214181 
502 1 0.101246 0.00280884 0.146025 0.177713 
3435 1 -0.00272803 0.02176 0.0864178 0.089157 
430 1 -0.114259 -0.118589 0.0501815 0.172153 
439 1 0.173372 0.0441655 0.0832174 0.197316 
3331 1 -0.00463867 -0.1939 -0.000745408 0.193957 
4182 2 -0.103144 -0.116535 0.0110449 0.156017 
874 1 0.152199 -0.113965 0.0905539 0.2106 
980 1 0.141025 -0.137518 0.189576 0.273383 
810 1 0.163924 0.0618122 -0.0320311 0.178095 
3312 1 -0.067257 -0.0784205 0.0637243 0.121384 
3383 1 0.0619617 0.103663 -0.0643934 0.136864 
225 1 0.0510103 -0.120832 0.168364 0.213422 
4280 2 0.145471 0.118632 -0.0586957 0.196674 
416 1 0.000353068 -0.173482 0.105687 0.20314 
365 1 0.104219 0.0197929 0.0860811 0.136614 
3799 2 0.0933608 -0.11012 -0.145412 0.204908 
2819 1 -0.00392611 -0.120492 0.0422893 0.127758 
382 1 0.0715974 0.0640523 -0.0870046 0.12961 
404 1 -0.0231302 -0.0344744 -0.0588159 0.0719916 
2776 1 0.0705408 0.00461751 0.0662126 0.0968578 
2973 1 -0.23985 -0.0504999 0.0324291 0.247244 
957 1 -0.0494194 -0.0187481 -0.205611 0.212296 
795 1 0.0350066 -0.00974599 0.0648485 0.0743355 
490 1 -0.00638033 -0.146759 -0.245934 0.286465 
3266 1 -0.0148143 -0.0345956 -0.0338039 0.0505868 
4285 2 0.0892796 -0.016515 -0.0446303 0.10117 
496 1 -0.105265 0.166396 0.0505087 0.203272 
2993 1 -0.0464947 0.10907 -0.0601495 0.132951 
4256 2 -0.104317 -0.298674 0.030307 0.317815 
471 1 -0.0920413 0.0902601 -0.0167841 0.130001 
517 1 0.038859 0.0140004 0.0266026 0.0491297 
279 1 -0.127933 0.388935 0.0485278 0.412301 
4264 2 0.121961 -0.170151 0.175167 0.272964 
4098 2 -0.0849089 0.066067 0.0859608 0.137709 
4028 2 -0.021733 -0.103409 0.215534 0.240043 
183 1 -0.313074 -0.0370767 -0.253664 0.404642 
3322 1 0.118184 -0.0062884 -0.0366334 0.123891 
3863 2 -0.0629702 -0.00416999 0.054724 0.0835305 
274 1 0.058919 -0.104776 -0.0826192 0.145861 
1091 1 0.0928658 -0.0351948 0.0675945 0.120132 
3396 1 0.0660403 -0.0385678 0.145115 0.164034 
3678 2 0.00559286 -0.0421581 0.160052 0.165606 
329 1 -0.238758 0.0974345 -0.199403 0.325976 
2545 1 -0.0912449 -0.0425976 -0.0897555 0.134893 
3327 1 -0.158405 0.0756417 -0.157213 0.235648 
3674 2 -0.054331 0.0599558 0.257303 0.269725 
1418 1 0.0620752 -0.113718 -0.199355 0.237755 
443 1 -0.0861118 -0.10937 -0.113902 0.179862 
855 1 0.00736546 -0.179751 -0.196338 0.266296 
3082 1 0.124382 0.0384867 0.00444926 0.130276 
3476 2 -0.0554844 -0.0377018 -0.107952 0.127097 
2869 1 -0.0993993 -0.00249871 -0.0478595 0.110349 
4307 2 0.152853 0.0669275 0.0216938 0.168267 
177 1 0.106353 0.134536 -0.124696 0.212038 
363 1 0.094585 -0.224134 -0.062776 0.251244 
1450 1 0.0104658 -0.0108471 0.0118647 0.0191824 
3559 2 0.0829889 0.175889 0.114545 0.225709 
347 1 0.070274 0.0661188 -0.0824447 0.126914 
4237 2 0.059807 -0.262693 -0.0926766 0.28491 
319 1 -0.0668302 0.0993504 -0.0105884 0.120204 
830 1 -0.00400852 0.0512018 -0.0208943 0.0554461 
295 1 -0.00803082 -0.0304902 -0.141475 0.144946 
937 1 -0.0134111 0.02341 0.00901635 0.0284461 
268 1 -0.0455453 0.108163 0.0955294 0.151326 
854 1 0.0464231 0.118806 -0.00721749 0.127758 
442 1 -0.0889911 -0.0380971 0.0248242 0.0999352 
875 1 0.0733732 0.0342034 0.0872564 0.119026 
501 1 0.165116 0.0313497 0.230271 0.28508 
3378 1 -0.071709 0.0885664 0.186941 0.218936 
3291 1 0.190484 -0.0358699 -0.128652 0.232642 
314 1 -0.0367697 -0.0537368 0.111689 0.129283 
474 1 -0.144433 0.0957896 -0.291324 0.338978 
3070 1 0.227205 -0.0160214 -0.119812 0.257359 
964 1 -0.17913 0.0860265 -0.106624 0.225515 
793 1 -0.213458 -0.0470262 -0.149441 0.26478 
3397 1 -0.101397 0.0279312 -0.0748114 0.129067 
899 1 -0.082797 -0.0409618 0.0441429 0.102381 
1337 1 -0.0118653 0.0534302 -0.0444478 0.0705066 
3278 1 -0.21804 -0.119928 -0.0453178 0.252938 
3544 2 0.0527373 0.0843401 0.170655 0.197529 
1430 1 -0.120688 -0.161628 0.260348 0.329348 
3200 1 -0.0265441 -0.0101147 0.0249336 0.0377966 
757 1 -0.243277 -0.0696721 0.0783011 0.264895 
822 1 -0.230369 -0.17398 0.320737 0.431522 
819 1 0.0121909 0.167099 -0.0253216 0.169446 
107 1 -0.026902 -0.139894 0.059832 0.154512 
275 1 0.226662 0.179607 0.15375 0.327527 
3240 1 -0.254381 -0.118003 -0.0665027 0.288196 
113 1 0.165626 0.0314387 -0.051297 0.176215 
504 1 -0.116546 -0.0630668 -0.0196506 0.133964 
2795 1 -0.0996331 -0.0127203 -0.0424849 0.109057 
781 1 -0.134906 0.0306784 0.105438 0.173948 
581 1 0.013903 0.00424621 0.0042854 0.0151555 
3541 2 0.000251243 -0.0229763 -0.0833296 0.0864395 
786 1 0.134807 -0.00722405 -0.169482 0.216678 
800 1 0.0559466 -0.270717 -0.15046 0.314732 
367 1 0.0757428 -0.0495344 0.0447566 0.100964 
2687 1 0.0249282 -0.111573 -0.138834 0.179846 
3545 2 0.0390497 0.0302878 -0.259099 0.26377 
491 1 0.0347167 -0.0562294 -0.112173 0.130191 
840 1 -0.0935763 0.105302 -0.0640547 0.154751 
3434 1 -0.0055288 -0.148461 0.064317 0.161888 
2814 1 0.0417248 0.126754 -0.0544172 0.144114 
1723 1 0.0402589 0.00847484 -0.229254 0.232916 
3264 1 0.147626 -0.122108 -0.0135588 0.192062 
440 1 -0.0298932 0.033155 0.0402871 0.0601324 
431 1 -0.0223445 -0.0326791 0.0883106 0.0967779 
402 1 -0.0127094 -0.108677 0.283978 0.304328 
968 1 0.0898377 -0.0867484 0.143038 0.189884 
801 1 -0.111158 -0.240929 0.106788 0.286019 
2656 1 0.0416288 0.134169 0.0516683 0.14968 
421 1 -0.130949 -0.0233433 -0.108095 0.171398 
4152 2 -0.283387 0.301649 0.0388902 0.415708 
461 1 -0.143131 0.237994 0.0466628 0.281612 
647 1 0.0123008 0.0156551 0.113381 0.115116 
3436 1 -0.0309002 -0.0248152 0.0734747 0.0834815 
3371 1 -0.031573 0.0846803 -0.151685 0.176567 
486 1 -0.218429 0.0617839 -0.0906597 0.244433 
308 1 -0.0154223 0.0236698 -0.102241 0.106073 
307 1 -0.0129493 -0.0311869 -0.07069 0.0783415 
85 1 0.102765 -0.0682093 0.0535913 0.134481 
4143 2 -0.310515 -0.190241 0.27381 0.455613 
2873 1 -0.0835084 -0.0599749 0.167705 0.196712 
2884 1 0.0115785 -0.021969 -0.0875308 0.0909853 
3339 1 -0.121118 0.0981426 0.123213 0.198703 
4298 2 -0.00910605 0.0385374 -0.00052661 0.0396022 
3535 2 0.0747225 0.169815 -0.0234221 0.187 
128 1 0.0252188 0.00359508 0.0733277 0.0776264 
907 1 0.0666141 0.0617515 0.0353434 0.0974671 
1641 1 0.149841 -0.01841 -0.121911 0.194046 
885 1 -0.0237548 0.0407059 -0.326905 0.330285 
1300 1 0.00550615 -0.00160821 -0.000838903 0.00579722 
1934 1 -0.0561705 0.00792986 0.0780464 0.0964845 
891 1 -0.100463 0.0231521 0.113192 0.153106 
3778 2 -0.0604385 0.000338185 -0.139702 0.152216 
1269 1 -0.232249 -0.202404 0.126613 0.333073 
1535 1 0.0187274 -0.0806115 0.0149143 0.0840915 
573 1 -0.0998646 -0.0672988 0.0151312 0.121371 
3844 2 -0.0357462 -0.0376207 -0.105546 0.117614 
631 1 0.0231162 0.0552324 -0.00529384 0.0601082 
606 1 -0.00835882 0.0314862 0.213571 0.216042 
3600 2 -0.0434425 -0.0166898 0.0243037 0.0525021 
627 1 -0.156287 -0.0284096 -0.0816835 0.17862 
1474 1 -0.0699155 -0.00260836 0.2398 0.249798 
1569 1 -0.201385 -0.335624 -0.0961222 0.403037 
63 1 -0.100563 -0.114041 0.101887 0.183028 
577 1 -0.197628 -0.107508 0.259052 0.343107 
565 1 0.0676762 0.0127574 0.193558 0.205445 
3616 2 -0.118333 -0.118336 0.230688 0.284996 
3418 1 -0.0966683 -0.0980087 0.0674918 0.153315 
4176 2 -0.0897455 -0.022807 0.129972 0.159585 
2057 1 0.0756044 -0.0433623 0.0865058 0.122799 
69 1 -0.151262 0.0213372 0.291444 0.329052 
865 1 0.151791 0.0997822 0.0326185 0.184556 