ITEM: TIMESTEP
46000
ITEM: NUMBER OF ATOMS
4320
ITEM: BOX BOUNDS pp pp pp
0.0000000000000000e+00 1.9309999999999999e+01
0.0000000000000000e+00 1.9309999999999999e+01
0.0000000000000000e+00 9.6549999999999994e+00
ITEM: ATOMS id type c_displacement[1] c_displacement[2] c_displacement[3] c_displacement[4] 
381 1 -0.0280852 -0.0591282 0.0958368 0.116059 
303 1 0.110756 -0.375726 -0.618249 0.731894 
2478 1 0.389151 -0.435385 0.142312 0.601042 
327 1 -0.0491127 -0.125799 0.0973423 0.166472 
728 1 0.0335391 -0.0469318 0.0129555 0.0591211 
7 1 0.13662 -0.480248 0.0705197 0.504258 
4289 2 -0.117555 0.089534 0.167746 0.223549 
2461 1 -0.123074 0.164903 0.0424161 0.210094 
484 1 0.0123763 0.392948 0.223341 0.452153 
2945 1 0.091488 -0.0158336 -0.345228 0.357496 
3230 1 0.0920013 -0.0650156 0.101465 0.151613 
3651 2 0.837708 -0.187133 -0.404779 0.94901 
400 1 0.0326564 0.0767467 0.0966834 0.127688 
677 1 -0.0167265 -0.147023 0.164875 0.221538 
623 1 0.0127185 -0.117917 -0.0263697 0.121497 
3743 2 -0.0597128 0.0943634 0.119254 0.163376 
727 1 -0.119056 -0.124639 0.174155 0.245029 
87 1 0.407204 0.391079 0.0262136 0.565195 
3514 2 0.185056 0.360419 0.568415 0.698028 
688 1 0.369992 -0.126109 0.1116 0.406512 
58 1 -0.0294842 0.242718 -0.534874 0.588108 
18 1 0.363997 0.479309 -0.109669 0.611766 
110 1 -0.0254402 -0.185151 -0.0327621 0.189741 
3611 2 -0.0407592 0.150801 0.0868708 0.178742 
155 1 -0.14642 0.099726 0.0600505 0.187057 
3460 2 -0.0388429 -0.0475767 0.0102553 0.0622694 
3712 2 0.055649 0.213689 0.0270796 0.22247 
190 1 -0.100386 0.222222 -0.209115 0.321231 
106 1 -0.207803 0.0924815 0.0623334 0.23584 
217 1 0.0237466 0.0445219 0.0377049 0.0629902 
775 1 0.142574 0.031026 -0.120404 0.189175 
3627 2 -0.0394336 0.228893 -0.125085 0.263805 
608 1 -0.10532 -0.00783439 0.101726 0.146635 
180 1 -0.00245984 -0.00861819 0.134564 0.134863 
59 1 -0.0220088 0.0483713 0.0746503 0.0916343 
3118 1 0.017205 0.105357 -0.112599 0.15516 
562 1 -0.0304129 0.0958886 -0.0391053 0.10793 
70 1 0.0166553 0.175211 0.142193 0.226263 
121 1 0.0464762 0.206412 -0.0286149 0.213506 
1118 1 -0.0292444 -0.0868326 0.0404662 0.100163 
4214 2 0.0361757 0.113005 0.181453 0.216804 
151 1 0.0739934 -0.020105 0.226536 0.23916 
226 1 0.111822 -0.0178781 0.168315 0.202864 
532 1 0.0311168 0.0702405 0.122468 0.14457 
3578 2 0.0940923 -0.00594637 0.0276598 0.0982536 
473 1 0.0629348 0.0292797 -0.131072 0.148317 
246 1 -0.0202936 0.120322 0.0831671 0.147668 
3478 2 0.0657627 0.179638 0.0646647 0.20193 
3618 2 0.241279 0.251063 -0.06504 0.354229 
817 1 0.195666 -0.122978 0.231896 0.327391 
4071 2 0.0784335 -0.0978905 0.0279865 0.128521 
2838 1 -0.000485414 0.136617 -0.0369202 0.141519 
536 1 -0.100903 -0.0605587 0.0181204 0.119068 
894 1 -0.11254 0.0100752 -0.30047 0.321012 
351 1 -0.23093 -0.000765176 -0.150412 0.275596 
3135 1 -0.116869 0.405973 -0.249891 0.490834 
4034 2 0.270937 0.480195 0.439526 0.705108 
289 1 0.016782 -0.220147 0.0684461 0.231152 
2768 1 0.0602169 0.047023 -0.155583 0.17333 
4053 2 -0.00314801 -0.119923 -0.241874 0.269989 
1415 1 -0.175052 -0.351996 -0.219715 0.450355 
527 1 -0.2343 -0.041819 -0.03862 0.241116 
3002 1 -0.34586 0.187734 -0.445194 0.594189 
712 1 0.0334566 -0.148829 0.0249749 0.154574 
3469 2 -0.155774 -0.0886945 -0.0839344 0.197932 
718 1 0.108519 -0.0467395 0.04201 0.125403 
424 1 0.05811 0.08098 0.0424361 0.10833 
96 1 -0.107894 -0.237002 -0.0306428 0.262202 
725 1 0.00683946 0.102975 -0.187013 0.213599 
4177 2 0.210631 -0.418171 0.410452 0.622659 
93 1 -0.174929 0.342764 -0.0682511 0.390827 
569 1 0.0533294 0.273965 0.232843 0.363478 
639 1 -0.265075 0.304984 -0.069992 0.410096 
21 1 -0.190022 0.00863835 -0.126169 0.228257 
3353 1 -0.0241734 -0.111705 -0.0548709 0.12678 
197 1 -0.110787 0.787482 -0.0426959 0.796382 
823 1 -0.0893154 0.113945 0.0414958 0.150608 
28 1 -0.244564 0.2196 -0.155463 0.363599 
2596 1 -0.0759936 0.180241 0.108526 0.223696 
50 1 0.0591258 0.0289372 0.0774729 0.101663 
2495 1 -0.0151215 0.160044 0.156987 0.224694 
3055 1 -0.0595036 -0.0119014 -0.0842608 0.103837 
12 1 -0.0114173 0.222596 -0.137216 0.261739 
738 1 0.00175248 -0.143903 0.0106166 0.144304 
988 1 -0.0628975 0.0872846 -0.178157 0.208121 
65 1 -0.0287067 0.083686 0.0801033 0.119348 
232 1 -0.185136 0.0731917 0.0607662 0.208146 
210 1 0.0682902 0.033211 0.218855 0.231655 
4170 2 -0.216765 -0.00232642 0.177279 0.280036 
2453 1 0.211989 0.117511 0.320571 0.401888 
3167 1 0.0207861 0.00627494 0.0932734 0.0957672 
339 1 0.126927 0.324579 0.0463155 0.351578 
390 1 0.227859 0.0534533 0.163442 0.285464 
23 1 0.263106 0.0236602 -0.255384 0.367431 
167 1 -0.091272 0.253795 0.0877904 0.283637 
118 1 0.273105 0.124902 0.0302871 0.301834 
203 1 0.0450154 -0.0619364 0.128986 0.15 
3582 2 -0.0405879 0.346789 -0.0143215 0.349449 
3632 2 0.0316317 0.2523 -0.021539 0.255186 
231 1 0.0222378 0.108858 0.17717 0.209126 
323 1 0.0912431 0.134264 0.0417529 0.167617 
3244 1 0.142922 0.126936 -0.0947877 0.213364 
43 1 0.0629989 -0.0325714 0.0415419 0.0821918 
3730 2 0.000514433 -0.0153344 -0.0292964 0.0330709 
3467 2 -0.303006 0.360094 0.299685 0.557935 
3916 2 -0.320047 -0.233142 -0.148183 0.422781 
2735 1 -0.0711181 0.0669587 -0.13204 0.164243 
553 1 -0.481079 0.394165 -0.517198 0.808886 
2960 1 -0.18449 0.092412 -0.265199 0.336016 
29 1 -0.14665 0.259435 -0.227517 0.374935 
753 1 -0.0906897 -0.241231 -0.106364 0.278801 
53 1 0.33928 0.09959 -0.238784 0.426669 
437 1 0.0791074 0.240732 -0.279937 0.37759 
593 1 -0.410849 0.442344 0.1745 0.628423 
609 1 0.32117 0.109851 -0.231315 0.410761 
3040 1 -0.363254 0.0995225 -0.100636 0.389854 
4228 2 -0.0505029 0.128391 -0.230637 0.268753 
3199 1 -0.0124162 0.0456437 -0.116074 0.125342 
3346 1 -0.00800557 0.156813 -0.0098869 0.157328 
1454 1 -0.223085 0.106211 -0.019007 0.247808 
3251 1 -0.492847 0.0455052 -0.386132 0.627747 
610 1 -0.100135 0.108224 0.131233 0.197387 
89 1 -0.104312 0.0690209 0.0154664 0.126033 
3149 1 -0.215587 0.187576 0.0124455 0.286037 
550 1 0.0466929 -0.425818 0.296305 0.520863 
147 1 -0.0172923 0.0391352 0.0141426 0.0450622 
3554 2 0.191769 -0.224176 0.102109 0.31218 
3786 2 -0.0276735 0.123894 -0.0851506 0.15286 
5 1 0.0440987 0.177195 0.0422522 0.187424 
2591 1 0.0842683 0.163484 -0.036397 0.187491 
3232 1 -0.0962772 0.314362 0.188647 0.379052 
1215 1 0.0491406 -0.253076 0.00578383 0.257868 
859 1 0.252029 0.0689437 0.0115117 0.261542 
821 1 -0.572532 0.158335 -0.267884 0.651632 
3152 1 -0.155657 0.0579197 0.0779437 0.183464 
3006 1 0.106858 -0.00874918 0.12963 0.168223 
3196 1 -0.0566124 -0.417592 -0.534887 0.680949 
3023 1 -0.0577827 0.598726 -0.161784 0.622885 
737 1 0.123878 -0.014874 -0.506102 0.521255 
1133 1 -0.0172994 -0.110611 -0.0183771 0.113454 
2500 1 -0.00729564 0.0213245 -0.177049 0.178478 
3188 1 0.139124 0.420339 -0.0233755 0.443381 
691 1 0.174503 -0.406655 0.0181067 0.442885 
529 1 -0.29741 -0.0930034 -0.271125 0.413051 
825 1 0.102803 0.0462953 0.0765221 0.136262 
174 1 0.0424899 0.164943 -0.0290857 0.172793 
2931 1 1.68197e-05 0.243802 0.166772 0.295385 
189 1 0.286664 0.040791 -0.23265 0.371437 
3464 2 -0.36079 -0.608809 -0.00255765 0.707689 
1480 1 -0.336902 -0.0350844 0.0923745 0.351093 
2968 1 0.131899 -0.0918004 0.0282878 0.163171 
1331 1 -0.240826 -0.0644617 0.148277 0.290066 
40 1 -0.068463 0.11454 0.0322852 0.137292 
98 1 0.0347749 -0.198363 -0.104995 0.227115 
133 1 0.150298 0.039725 -0.0179675 0.156494 
140 1 -0.220883 -0.150326 0.150765 0.306786 
3643 2 0.0372351 0.0122823 -0.261859 0.264778 
1130 1 -0.135099 -0.117102 0.00762302 0.178949 
3041 1 -0.0772227 -0.176818 -0.0975159 0.216188 
604 1 0.289554 0.133649 -0.114796 0.338942 
721 1 0.0801706 0.0102989 -0.328798 0.338588 
4094 2 0.415268 -0.279654 -0.663345 0.831072 
241 1 -0.0628918 0.0250155 0.0366328 0.0769618 
2934 1 0.0470517 0.145731 0.0404854 0.1584 
559 1 -0.299261 -0.0203366 -0.174345 0.34694 
3491 2 -0.304064 0.436475 -0.499158 0.729469 
446 1 0.0707803 0.129171 0.182254 0.234332 
257 1 0.0569201 0.0977251 -0.0627019 0.129312 
64 1 -0.0264503 -0.110635 -0.228051 0.254847 
193 1 -0.0141177 0.156819 -0.109369 0.191711 
2996 1 0.0769389 0.038588 -0.129821 0.155763 
4212 2 0.0331263 0.0239498 -0.0459371 0.0614911 
44 1 0.0409834 0.122908 0.0350238 0.134211 
3279 1 0.0147337 0.142538 0.0125048 0.143842 
178 1 -0.0677867 -0.00760271 -0.122936 0.140592 
1179 1 0.0737002 0.121808 -0.0534707 0.152079 
2684 1 -0.519135 0.0523378 -0.426575 0.673949 
330 1 -0.00189656 0.272237 0.184519 0.328883 
600 1 -0.0176126 0.0259482 0.0226193 0.0386671 
338 1 -0.065767 0.019983 0.109199 0.129031 
4101 2 0.158947 -0.00488416 0.255437 0.300892 
3841 2 -0.0937427 0.211043 0.0213371 0.23191 
949 1 -0.0794427 0.137497 0.146677 0.216173 
3679 2 -0.938567 -0.256695 -0.0975047 0.97791 
4217 2 0.0407778 0.00275315 0.0951874 0.103591 
479 1 -0.0633208 0.0817495 0.127046 0.163808 
3335 1 -0.097778 0.0212402 0.0709161 0.122641 
1457 1 -0.0361083 0.00517596 0.0736819 0.0822169 
3037 1 -0.120724 0.182042 -0.11473 0.246732 
4253 2 0.153452 0.0889165 -0.0794927 0.194352 
387 1 0.0129666 -0.0309219 0.0192497 0.0386632 
3736 2 -0.0528205 0.316716 0.0335905 0.322842 
78 1 0.0585849 0.0939534 0.103873 0.151819 
717 1 -0.00718675 0.0766216 0.229893 0.242432 
2936 1 0.123602 0.246775 0.0949663 0.29188 
497 1 0.0552837 -0.0858651 0.0845384 0.132574 
508 1 -0.147803 0.131826 -0.0548554 0.205506 
3130 1 -0.0184817 -0.0724449 -0.18593 0.200399 
3537 2 0.153502 0.151885 0.0300141 0.21802 
747 1 -0.0494475 0.171138 0.118834 0.214137 
958 1 -0.063834 -0.159635 0.0586022 0.181638 
4163 2 0.000413633 -0.117625 0.037439 0.12344 
4204 2 -0.0390276 0.00685583 0.0221543 0.0453979 
86 1 0.244675 0.0632525 -0.0517867 0.25797 
759 1 0.0913675 0.16834 -0.0774662 0.206609 
3411 1 -0.0687707 0.184406 0.328475 0.382924 
835 1 -0.255701 0.367026 0.0546065 0.450636 
3057 1 0.582432 0.240893 0.028467 0.630926 
312 1 0.568585 0.0916817 -0.31913 0.658437 
3620 2 -0.0333118 0.752873 0.168778 0.772278 
3164 1 0.108095 0.105219 -0.052047 0.159576 
704 1 0.0578717 0.446459 -0.220638 0.501354 
157 1 0.036826 0.208546 0.062202 0.220719 
54 1 -0.073384 0.0453475 -0.376626 0.386379 
493 1 -0.0193503 0.290126 -0.121934 0.315302 
3599 2 -0.156798 0.193089 -0.0622942 0.256416 
204 1 -0.0426957 0.0591444 -0.153824 0.170244 
254 1 0.0506694 0.244307 -0.116266 0.275265 
3007 1 0.0557333 0.0673348 0.0644632 0.108608 
233 1 -0.00562036 0.109301 0.231514 0.25608 
2988 1 -0.2445 0.24188 -0.134356 0.369239 
3030 1 -0.26198 0.316292 -0.133071 0.43172 
540 1 -0.112046 0.155152 -0.0938744 0.213164 
1036 1 0.110004 -0.0200051 -0.00574038 0.111955 
234 1 0.111897 0.0263092 -0.041009 0.122045 
3216 1 0.0960409 0.118578 -0.0747371 0.169912 
3479 2 0.121531 0.543521 0.0406162 0.558422 
3369 1 0.0599616 0.123162 0.0327095 0.140834 
3607 2 0.0606616 0.141816 -0.0470448 0.16126 
3139 1 -0.0242601 0.00613199 0.00459302 0.0254411 
644 1 -0.0577531 0.0199172 -0.0301014 0.0681044 
1278 1 0.11346 0.159639 -0.0696092 0.207853 
354 1 0.172811 0.0376296 0.0899004 0.198398 
4269 2 0.0255856 0.0713684 0.0776089 0.108495 
4089 2 0.212034 -0.0245609 0.0615124 0.222138 
214 1 0.0944298 0.1571 0.0409682 0.187818 
640 1 -0.0766817 -0.0263912 -0.0399806 0.0904159 
199 1 0.0355431 0.00887607 0.0183985 0.0409951 
245 1 0.0632293 0.016314 0.185728 0.196873 
2758 1 -0.00451842 0.131252 0.192173 0.232762 
3056 1 -0.0421043 -0.138398 0.0602533 0.156707 
3468 2 -0.269677 0.0697822 0.185756 0.334814 
3003 1 -0.0828126 0.0754664 -0.0631906 0.128632 
3096 1 -0.130199 -0.0217313 -0.0097017 0.132356 
3211 1 0.145235 -0.0187087 0.0429824 0.152613 
3518 2 -0.0519068 0.233259 0.140478 0.277197 
181 1 -0.0291743 -0.142106 -0.0386586 0.150133 
46 1 -0.0471851 -0.343553 0.0678977 0.353363 
3603 2 0.0139309 -0.500049 0.169824 0.528284 
240 1 0.125225 0.276479 -0.292025 0.421189 
3701 2 0.269874 -0.672276 0.290328 0.780435 
103 1 -0.0162319 0.116458 -0.00164977 0.117596 
1102 1 0.192863 0.379724 -0.518023 0.670622 
135 1 -0.123581 -0.132397 0.0271426 0.183134 
66 1 0.0573206 -0.111067 -0.51582 0.530746 
3513 2 -0.310402 -0.343481 -0.34585 0.577876 
587 1 -0.0252869 0.207804 0.0811014 0.224498 
2939 1 -0.175513 -0.0991301 -0.137978 0.244274 
134 1 0.0263872 0.0576651 0.251684 0.25955 
3512 2 -0.0570583 0.0956763 0.0625344 0.12775 
3408 1 0.0784927 0.0698407 0.175207 0.204295 
685 1 -0.115531 0.124389 0.216421 0.27506 
191 1 -0.001925 0.0748995 0.00126424 0.0749349 
80 1 -0.0508537 -0.0200932 0.125288 0.1367 
195 1 -0.0832845 0.143065 -0.137917 0.215465 
2995 1 -0.220317 -0.074246 -0.269288 0.355764 
3092 1 -0.00850766 0.110301 0.0217433 0.112745 
4195 2 -0.222541 -0.0437104 -0.218096 0.314645 
602 1 -0.136985 0.092635 -0.159074 0.229457 
920 1 0.0658985 0.0765856 -0.170989 0.198608 
563 1 -0.0503273 0.279658 0.0151245 0.284553 
674 1 0.0464854 0.0243486 -0.199028 0.20583 
2004 1 -0.278789 -0.0442416 0.0691817 0.290632 
182 1 0.0703156 0.00289653 -0.136468 0.153545 
4173 2 0.277355 0.112306 -0.0176614 0.299751 
2950 1 -0.180249 -0.0877623 -0.0200144 0.201476 
6 1 -0.186477 0.0229687 -0.00226423 0.1879 
427 1 0.0451091 0.207887 -0.131066 0.24986 
690 1 0.0640142 0.11906 -0.0222875 0.137003 
902 1 0.0471044 0.293151 0.0440675 0.300164 
3115 1 -0.0916412 0.173542 0.0113403 0.196579 
4050 2 0.13889 0.19652 0.07942 0.253413 
3608 2 0.111941 0.185922 0.178829 0.281208 
2926 1 -0.0996594 -0.0195033 0.00515281 0.101681 
742 1 0.0522687 -0.0597816 -0.131171 0.153336 
710 1 0.0901557 -0.0616353 -0.0664542 0.12784 
95 1 -0.0397195 -0.0896445 0.164303 0.191335 
580 1 -0.0610749 0.0974874 0.115304 0.162877 
2977 1 0.0695695 0.0933119 0.209337 0.239518 
216 1 0.00263616 0.0497521 0.137509 0.146256 
215 1 -0.0196121 0.0510869 0.0268416 0.0609506 
1149 1 0.134444 -0.0413103 0.244287 0.281883 
67 1 0.0136144 0.11924 -0.0843769 0.146708 
154 1 0.0547381 0.0401607 0.148177 0.162989 
205 1 -0.407175 0.118014 0.0687069 0.429464 
694 1 -0.245982 0.255642 0.177704 0.396786 
861 1 -0.240086 -0.0668009 0.0982576 0.267877 
3549 2 -0.250422 -0.0711406 -0.044884 0.264172 
389 1 0.126961 -0.133488 0.00472602 0.184284 
3401 1 -0.163269 0.155839 0.167594 0.281123 
1077 1 -0.068335 0.0918946 0.0259959 0.117431 
3303 1 -0.0239663 0.144493 0.0628441 0.15938 
3392 1 0.128784 0.157269 -0.0379062 0.206774 
160 1 0.0245561 -0.208908 0.116898 0.240646 
3808 2 -0.0872305 0.105315 -0.0510045 0.145951 
353 1 0.114509 0.0445988 -0.018704 0.124303 
512 1 -0.0408897 0.224956 0.0417312 0.232419 
300 1 -0.0269565 0.230503 -0.00199146 0.232082 
393 1 -0.0625106 0.110006 0.0606131 0.140296 
2740 1 0.122408 0.242545 0.0849661 0.284659 
3341 1 -0.0978686 0.284001 -0.0572433 0.305797 
286 1 -0.074257 0.00919079 0.0284936 0.0800653 
3197 1 -0.092037 -0.0815358 -0.0308936 0.126781 
4006 2 0.0560814 0.216675 0.00982941 0.224031 
277 1 -0.118612 0.0715124 -0.0360293 0.143111 
364 1 -0.114378 0.180148 0.0294458 0.215413 
1367 1 0.0410106 0.0312691 0.00672098 0.0520077 
411 1 -0.0517266 0.197524 -0.103107 0.22874 
626 1 0.12669 -0.059675 -0.0265972 0.142544 
356 1 -0.0287564 -0.0159206 0.0456504 0.0562526 
3404 1 -0.0697039 -0.0553605 0.0846946 0.122868 
966 1 -0.0726297 -0.055378 0.15286 0.178067 
3612 2 -0.0737146 0.688259 -0.00969282 0.692263 
3389 1 0.144484 0.175558 -0.226118 0.320664 
357 1 -0.424948 0.593215 -0.30935 0.79258 
362 1 -0.0995555 0.19263 0.183808 0.284259 
478 1 -0.0520626 -0.0448795 0.100788 0.121996 
4159 2 0.0518001 -0.021803 0.428076 0.43175 
2696 1 -0.102422 -0.25452 -0.505224 0.57491 
3319 1 0.0465144 -0.452022 -0.318755 0.55506 
309 1 -0.133349 0.127538 -0.034853 0.187784 
334 1 -0.0981984 0.126665 -0.0192196 0.161419 
780 1 -0.212389 0.178487 -0.448045 0.526983 
924 1 0.161744 -0.0784768 0.029452 0.182174 
2710 1 0.128241 0.512923 -0.563148 0.772446 
3313 1 0.137727 0.0731661 -0.100507 0.185536 
3588 2 0.392952 -0.806671 -0.846911 1.23385 
2365 1 -0.0733186 0.0559606 -0.392026 0.40273 
3350 1 -0.251792 0.940672 0.610202 1.14918 
3631 2 0.00473627 0.0384362 0.0198272 0.0435074 
100 1 0.0254756 -0.0247996 -0.0253862 0.0436862 
2873 1 0.119136 -0.44174 0.331267 0.564859 
92 1 -0.386365 -0.57003 -0.300559 0.751364 
3333 1 -0.070763 0.193912 -0.260109 0.332064 
3249 1 0.0156963 0.129079 -0.170022 0.214045 
3379 1 -0.0213981 0.0558435 0.266309 0.272941 
903 1 -0.00304337 -0.231271 -0.0348473 0.233902 
1449 1 -0.00814624 -0.128206 -0.0204437 0.130081 
4257 2 1.06665 0.553417 -0.105784 1.20632 
951 1 -0.0367675 -0.114215 -0.244672 0.272509 
462 1 -0.116793 -0.0120573 0.140719 0.18327 
2966 1 -0.0584975 0.0499927 -0.0128535 0.0780156 
750 1 -0.180182 0.0337341 0.0902231 0.204313 
3162 1 -0.173799 0.150044 0.0579059 0.236796 
3022 1 0.0530853 0.186379 -0.0211877 0.194946 
2479 1 -0.0254196 0.0391252 -0.0452843 0.0650201 
3305 1 0.0448078 0.202841 0.120316 0.240059 
3409 1 0.0474039 0.0641974 -0.00383802 0.0798947 
886 1 -0.142132 0.0466429 0.123531 0.194002 
287 1 -0.0677403 -0.0595137 0.049785 0.103001 
449 1 0.0788592 0.129295 -0.134451 0.202517 
3209 1 0.0679564 0.0924859 -0.181363 0.214626 
3647 2 -0.104813 0.176073 0.109393 0.232281 
2890 1 0.0516717 0.15278 0.002216 0.161296 
1285 1 -0.02586 0.21283 0.193113 0.288544 
943 1 -0.0929803 0.0641263 0.0422283 0.120585 
3531 2 0.0628226 -0.139583 -0.141699 0.208587 
4318 2 -0.206839 0.0929632 0.174178 0.285941 
3883 2 0.114668 0.14234 0.0828859 0.200697 
3227 1 0.039721 0.0198744 0.142277 0.149048 
373 1 0.059946 0.166999 0.0388356 0.181632 
4297 2 -0.0700639 0.145398 0.130609 0.207625 
398 1 -0.0517339 -0.018847 0.0682102 0.0876598 
3535 2 -0.130602 0.072643 -0.138688 0.203883 
3221 1 -0.031678 0.250837 0.10192 0.2726 
490 1 0.281108 -0.137041 -0.349471 0.468969 
394 1 0.0950939 0.14801 0.178467 0.2506 
412 1 -0.0457621 0.184697 0.149183 0.24179 
836 1 -0.0764436 -0.137061 0.272189 0.314191 
392 1 0.0472101 0.0305648 0.0478764 0.073859 
3573 2 -0.247688 0.129933 -0.566738 0.632 
1212 1 -0.0710126 0.168756 0.099904 0.208572 
306 1 -0.260173 0.103008 -0.309231 0.417043 
3360 1 -0.0617811 0.0860411 -0.333295 0.349722 
3093 1 -0.39188 0.072236 -0.426829 0.583927 
3097 1 -0.180432 0.0830956 -0.585718 0.618487 
3324 1 0.0364998 -0.527644 0.192143 0.562724 
2745 1 -0.156514 0.108212 0.00889738 0.190488 
433 1 -0.128429 0.0159525 -0.0222364 0.131312 
3546 2 -0.644549 -0.392401 -0.571589 0.946645 
614 1 0.0728203 0.287939 0.179946 0.347264 
2961 1 -0.41108 -0.127093 -0.215223 0.481103 
4284 2 -0.0749584 0.773864 0.62557 0.997908 
3483 2 0.0321736 0.0147232 0.0846918 0.0917857 
228 1 0.0977142 -0.367474 0.0488559 0.383369 
2737 1 -0.188406 -0.151729 -0.0308463 0.243865 
2959 1 0.208242 -0.492558 0.0149588 0.534978 
3337 1 0.409419 -0.152723 0.0482668 0.439634 
4116 2 -0.0157589 -0.0787696 -0.0290232 0.0854128 
2861 1 -1.06865 0.830353 -1.21429 1.81824 
601 1 -0.0329272 0.200059 0.0672167 0.213602 
3617 2 0.0465132 -0.0639838 0.140314 0.161076 
206 1 0.057115 0.0294437 -0.0396647 0.0755138 
71 1 0.124115 0.0704365 0.0255617 0.14498 
716 1 0.151334 0.104477 -0.0709831 0.197119 
4185 2 0.2674 -0.107606 -0.151366 0.325566 
3561 2 0.18719 0.147804 0.0399486 0.24183 
3225 1 0.249365 0.19954 -0.0555302 0.324165 
763 1 0.126433 0.108778 0.137097 0.215901 
3676 2 0.192583 -0.0374453 -0.12019 0.230078 
3380 1 0.18373 0.0485796 -0.0354404 0.19332 
1313 1 0.218834 0.103518 0.0174765 0.242713 
838 1 0.132935 0.152059 0.0279794 0.203903 
388 1 0.0578178 0.156066 0.171752 0.239162 
3668 2 0.206796 0.247442 0.00454764 0.32251 
460 1 0.195567 -0.0601858 0.0866752 0.22222 
499 1 0.161959 0.106798 0.0804045 0.210003 
444 1 0.138439 0.125791 0.00571272 0.18714 
3548 2 -0.0859121 0.401898 -0.0931039 0.421392 
482 1 0.0324833 -0.18947 -0.223985 0.295166 
291 1 0.146472 0.0866374 0.030949 0.172968 
1314 1 0.0514354 0.102854 0.0194008 0.116623 
3672 2 0.104709 0.147099 -0.0211954 0.1818 
375 1 0.241492 0.145953 -0.11494 0.304683 
94 1 0.0276177 0.489819 -0.169051 0.518907 
37 1 0.182828 -0.292636 0.0940934 0.357652 
4309 2 -0.0601315 -0.0486213 -0.000221587 0.0773296 
3393 1 -0.0305 0.125106 0.0573457 0.140962 
1354 1 0.00295428 -0.405854 0.0953199 0.416908 
901 1 -0.0953491 0.0759802 -0.113625 0.166659 
436 1 0.17744 0.0992279 -0.0580417 0.211424 
792 1 0.0603152 -0.380144 0.0547954 0.38878 
3293 1 0.00419453 0.334642 0.0853237 0.345373 
318 1 -0.0492507 0.327585 -0.224627 0.400244 
3150 1 0.404797 0.639882 -0.735791 1.05579 
221 1 -0.0964496 0.191165 0.00210508 0.214129 
3095 1 -0.017989 0.0721854 -0.226354 0.238266 
3314 1 0.12356 -0.199868 -0.0447321 0.239197 
3180 1 -0.458492 -0.193027 -0.0171693 0.497764 
355 1 -0.834401 -0.476205 0.324962 1.0142 
1324 1 0.0347504 0.115483 0.160833 0.201026 
1145 1 -0.00486959 0.0893814 0.012746 0.0904169 
378 1 0.28047 0.0561886 -0.0525072 0.290822 
3526 2 -0.386263 -0.0589023 -0.384341 0.548075 
4271 2 -0.00192924 0.127542 0.122739 0.177018 
1172 1 0.0595962 -0.0264923 0.0704653 0.0960151 
652 1 0.110546 -0.0233088 0.0536623 0.125074 
3568 2 -0.0470815 0.126806 0.0521131 0.144956 
3433 1 0.198212 0.0181126 0.00629528 0.199138 
1304 1 0.204995 -0.0308356 0.0711506 0.219171 
3560 2 0.0929024 0.00729658 0.0631591 0.112575 
3419 1 -0.0146727 0.132687 0.0890774 0.160487 
248 1 0.0652256 0.0355687 0.117032 0.138622 
349 1 -0.0347819 0.0590159 0.0804201 0.105641 
249 1 -0.22446 -0.377997 0.446268 0.626433 
325 1 0.0010038 0.00599992 0.00534093 0.00809519 
292 1 0.0908571 0.0980211 0.023199 0.135652 
3444 1 0.135167 -0.0572345 0.00956319 0.147096 
908 1 0.24085 -0.30093 0.0139155 0.385696 
3504 2 0.310569 -0.0827479 0.0297551 0.322778 
423 1 0.224171 -0.058082 -0.0927986 0.249475 
781 1 0.0724777 -0.305011 -0.00603784 0.313562 
4182 2 0.00580437 -0.25311 -0.160042 0.299519 
874 1 0.0324628 -0.236422 0.172491 0.294453 
980 1 -0.0388894 -0.207775 0.207991 0.296552 
225 1 0.0315186 -0.329696 0.211293 0.392858 
810 1 0.20854 -0.143967 -0.00566923 0.253471 
3281 1 -0.0161147 -0.164866 0.190672 0.252579 
3312 1 0.0598324 0.0273509 -0.156692 0.169942 
208 1 0.0162085 -0.158472 -0.257915 0.303144 
3420 1 -0.10332 -0.0841873 -0.0401144 0.139182 
404 1 0.0152677 -0.103604 -0.0643487 0.122913 
4280 2 0.300186 0.509716 -0.282473 0.655525 
416 1 0.211918 -0.245233 0.117141 0.344632 
365 1 0.128549 -0.31809 0.0215106 0.343757 
3799 2 0.152385 -0.212997 -0.128251 0.291612 
2819 1 0.132965 -0.193222 -0.126127 0.266313 
382 1 -0.0473615 0.220085 -0.326152 0.396302 
2776 1 0.0673597 -0.201468 -0.0232978 0.213704 
3082 1 0.0196337 0.0834714 0.13269 0.157986 
957 1 0.0643214 -0.0923524 -0.313909 0.333474 
2973 1 -0.252177 0.191819 -0.24432 0.4001 
474 1 -0.21447 -0.0785079 -0.702414 0.738611 
863 1 -0.0148604 -0.39009 -0.112942 0.406383 
4256 2 -0.453805 -0.559121 -0.291657 0.776929 
783 1 -0.759277 -0.137006 0.209374 0.799444 
1337 1 -0.0825854 -0.0685498 0.0605954 0.123253 
496 1 -0.0863539 0.00772225 0.058825 0.104771 
2993 1 -0.582083 0.345265 -0.0201559 0.677079 
279 1 0.0333649 0.256938 -0.00500174 0.259143 
4285 2 0.0427085 0.0606221 -0.200888 0.214138 
3266 1 0.366644 0.0613412 -0.114848 0.389076 
275 1 0.179704 0.147318 -0.157733 0.280848 
471 1 0.0602595 0.385506 -0.192879 0.435257 
917 1 0.0570512 0.00659359 0.0360521 0.0678091 
3322 1 0.0408405 0.117817 0.00626805 0.124852 
3863 2 -0.0202932 -0.0759298 0.142216 0.162489 
274 1 0.0290576 -0.0240037 -0.0709145 0.080308 
1091 1 0.158029 0.117395 0.120807 0.230974 
3396 1 0.0364135 -0.0038551 0.11684 0.122443 
2545 1 -0.067819 -0.00286288 -0.016651 0.0698919 
4264 2 0.379817 0.068563 0.111759 0.401811 
4028 2 -0.174098 0.0578249 0.161228 0.244231 
3435 1 0.0289921 -0.0258835 0.16288 0.167453 
502 1 -0.0243109 -0.00631104 0.118242 0.12088 
819 1 -0.0481624 0.0701897 0.168215 0.188527 
3327 1 -0.164679 0.0247775 0.0182835 0.167534 
3674 2 0.00579429 0.237844 0.145576 0.278919 
1418 1 0.0997008 0.134925 0.0462573 0.174025 
443 1 -0.034953 -0.0459329 0.00872749 0.0583757 
855 1 0.0234909 -0.0788236 -0.121152 0.146434 
3476 2 0.059386 0.11186 0.0356789 0.131576 
3331 1 0.0901158 0.068703 -0.0833106 0.140647 
4307 2 0.0508529 0.0385829 -0.0191387 0.0666404 
2869 1 -0.0513281 -0.0974222 0.0703389 0.130665 
177 1 0.132626 0.0323444 -0.0241963 0.13864 
363 1 0.0243404 -0.0973693 -0.183098 0.208802 
1450 1 -0.0223336 0.00332233 0.0478926 0.0529484 
3559 2 0.0915319 0.0760208 0.163118 0.201903 
347 1 -0.0158199 -0.0220155 0.0432892 0.0510774 
4237 2 0.0678191 -0.0642026 -0.11098 0.145045 
875 1 0.0989486 -0.0599463 0.118633 0.165705 
295 1 0.116089 -0.199364 -0.327084 0.400258 
268 1 0.0868295 -0.015621 0.0215327 0.0908132 
830 1 -0.0151924 0.0441001 -0.118458 0.12731 
937 1 0.0359751 0.0351168 -0.0320769 0.059635 
854 1 -0.0430446 0.24158 -0.116609 0.271683 
442 1 -0.0124258 -0.183631 -0.237082 0.300137 
314 1 -0.0972971 -0.0633536 -0.00965666 0.116506 
647 1 0.1735 0.180717 0.00655975 0.250607 
3291 1 0.284006 -0.1539 -0.163357 0.361981 
3070 1 0.217057 -0.0491972 -0.230824 0.320646 
964 1 0.137111 0.151628 -0.606328 0.639862 
793 1 0.220371 0.113027 -0.434497 0.500126 
3397 1 -0.000149049 -0.0783317 -0.618779 0.623718 
107 1 -0.0747342 -0.054962 -0.196587 0.217376 
486 1 0.0981407 0.206102 -0.599401 0.641398 
3378 1 0.301939 0.26302 -0.0827442 0.408893 
419 1 0.757731 -0.0125639 -0.0676403 0.760848 
757 1 0.273017 -0.0302002 -0.167899 0.321932 
3544 2 -0.0122548 -0.0795549 -0.0495156 0.0945037 
1430 1 0.111889 -0.0146093 -0.285989 0.307445 
3200 1 0.245974 0.289286 -0.109865 0.395297 
699 1 0.0732822 0.0771008 0.101633 0.147119 
822 1 0.160084 -0.0639692 0.102477 0.20055 
307 1 -0.0699235 -0.0496943 -0.166686 0.187465 
85 1 0.180887 0.0656933 0.288575 0.346859 
329 1 -0.171313 0.164588 -0.0863346 0.252766 
3240 1 -0.0902728 0.172061 0.23004 0.301119 
113 1 0.0596162 0.0758468 0.146499 0.175411 
504 1 -0.0519258 0.0935673 0.326271 0.343372 
2795 1 -0.0739393 0.226075 0.121254 0.266982 
3383 1 0.0585722 0.161066 0.0790181 0.188724 
483 1 0.0233931 0.0357984 -0.026563 0.0503424 
187 1 -0.199784 0.0886461 0.311542 0.380565 
4098 2 -0.09084 -0.177745 0.397326 0.44465 
3545 2 0.0841114 0.200978 -0.122406 0.2499 
581 1 -0.109008 0.0285333 0.0829891 0.139943 
3541 2 0.0805525 0.0758699 0.0840557 0.138962 
786 1 0.0423746 0.042426 0.0727383 0.0942679 
800 1 -0.0104342 -0.0560626 -0.105559 0.119977 
367 1 0.0971898 0.100712 0.177873 0.226335 
2687 1 0.0689694 0.0259149 -0.0571835 0.0932647 
491 1 -0.0705712 0.182041 -0.126703 0.23275 
4143 2 -0.201736 -0.000709876 -0.114597 0.232014 
319 1 -0.109199 -0.0733338 -0.078394 0.153127 
430 1 -0.241052 0.00141378 0.0344914 0.243512 
4154 2 0.0123062 0.64873 -0.226459 0.68723 
3434 1 0.0348963 -0.024933 0.0855595 0.095707 
2814 1 0.0596732 0.273064 0.108219 0.299727 
1723 1 0.0526213 0.0688491 0.0132556 0.0876636 
3264 1 0.0498179 -0.0610701 0.0338413 0.0857707 
440 1 -0.000121859 0.0642019 0.0615875 0.0889658 
501 1 0.223331 -0.0885957 0.097362 0.25924 
2656 1 0.0993443 0.0480711 0.0100956 0.110824 
308 1 -0.331468 -0.240841 -0.412811 0.581626 
431 1 -0.000187886 0.289599 0.00524414 0.289646 
801 1 -0.0448694 -0.379457 -0.230687 0.446338 
968 1 0.0124235 -0.239605 0.0551959 0.246194 
421 1 -0.493499 0.00402076 -0.306547 0.580971 
771 1 -0.217825 0.0249774 0.125514 0.252636 
3371 1 0.0810912 0.00231339 -0.536971 0.543065 
4152 2 -0.160775 0.359773 -0.425222 0.57974 
2884 1 -0.168827 -0.0833398 -0.0825323 0.205572 
3339 1 -0.132576 0.160586 -0.638672 0.671764 
3436 1 0.0447826 -0.0737147 0.0131089 0.0872421 
840 1 -0.165199 -0.00899939 -0.53507 0.560064 
3192 1 0.104341 -0.0493782 -0.767806 0.776435 
461 1 0.00832442 0.197722 -0.473666 0.513345 
402 1 0.132639 -0.00401004 -0.173796 0.218665 
899 1 0.118143 -0.249545 -0.110016 0.297211 
3223 1 -0.2271 -0.0657764 -0.19796 0.308365 
517 1 0.160289 0.207907 -0.231763 0.350189 
4298 2 0.0290857 -0.149403 0.253009 0.295264 
3482 2 -0.267202 -0.17072 -0.182481 0.365843 
439 1 0.0540652 0.256829 0.00767335 0.26257 
4239 2 0.7001 1.25117 -0.766994 1.62599 
3678 2 -0.228566 0.212869 0.0665257 0.319345 
128 1 -0.0381793 0.0971841 0.0509762 0.116194 
907 1 0.00425134 -0.00207626 0.0352077 0.0355242 
1641 1 -0.009103 0.11128 -0.0679916 0.130724 
891 1 -0.0319137 -0.150984 0.0630091 0.166688 
509 1 -0.0607561 -0.0516241 0.163838 0.182206 
1544 1 0.0885134 -0.0822665 -0.0259773 0.123601 
1535 1 0.131964 -0.0511028 0.0885828 0.166952 
573 1 0.026824 -0.0288841 0.109859 0.116717 
3844 2 0.129226 0.0478122 0.0999958 0.170249 
631 1 0.233212 0.0554567 0.0966905 0.258481 
3600 2 0.234853 -0.00809343 -0.0222711 0.236046 
606 1 0.0120677 -0.0158229 0.207899 0.208849 
1474 1 -0.00594416 0.0500192 0.232223 0.237623 
1160 1 0.14808 0.0282234 0.10996 0.186589 
1569 1 -0.0428146 -0.116262 -0.0610806 0.138133 
63 1 -0.0148879 -0.0958825 0.105631 0.143433 
577 1 -0.109357 0.00759346 0.246658 0.26992 
565 1 -0.0528665 -0.0515192 0.202865 0.215878 
3616 2 0.00474876 -9.68064e-05 0.0632169 0.0633951 
3418 1 0.0149464 -0.0332769 0.247049 0.249728 
4176 2 -0.104952 0.0499758 0.14598 0.186608 
69 1 -0.058986 -0.0881328 0.239375 0.261815 
2057 1 -0.0250061 -0.133348 0.260345 0.293575 
52 1 0.201197 -0.0227005 -0.00203442 0.202483 
4319 2 -0.139086 -0.0159197 0.0619445 0.153086 
655 1 -0.27368 0.0666063 0.289984 0.404262 
1053 1 -0.0563832 -0.103146 -0.120885 0.168616 
621 1 -0.0504936 -0.200171 -0.0269498 0.208193 
3615 2 -0.121791 0.124503 0.0319017 0.177064 
172 1 -0.242518 0.0102509 0.121109 0.27127 
574 1 -0.275198 -0.222228 -0.027235 0.354769 
337 1 -0.132434 0.0745446 -0.0378398 0.156613 
3503 2 0.0177133 -0.0254237 0.142289 0.145624 
740 1 0.0929659 -0.130444 -0.12502 0.203196 
3572 2 0.0402945 -0.0751656 0.085056 0.120449 
617 1 0.114026 -0.0349387 -0.126795 0.174068 
1083 1 0.0696047 0.0783918 0.0058671 0.104998 
401 1 -0.0738942 0.10602 0.152952 0.200237 
657 1 -0.173982 0.25489 -0.0521335 0.31298 
1269 1 -0.0137139 0.0698651 0.238763 0.249153 
158 1 0.00189785 0.184247 -0.0996219 0.209464 
1300 1 0.0178391 -0.0891899 -0.0568409 0.107257 
345 1 -0.0875724 -0.0547117 -0.0843799 0.13335 
1217 1 -0.0401233 0.108187 0.0803609 0.140614 
959 1 0.0298087 -0.0208366 -0.338421 0.34037 
425 1 -0.0370327 -0.0632815 -0.0794796 0.108134 