ITEM: TIMESTEP
22000
ITEM: NUMBER OF ATOMS
4320
ITEM: BOX BOUNDS pp pp pp
0.0000000000000000e+00 1.9309999999999999e+01
0.0000000000000000e+00 1.9309999999999999e+01
0.0000000000000000e+00 9.6549999999999994e+00
ITEM: ATOMS id type c_displacement[1] c_displacement[2] c_displacement[3] c_displacement[4] 
381 1 -0.028143 0.0215011 0.0955989 0.101948 
327 1 -0.363058 0.388657 -0.0107756 0.531959 
728 1 -0.138338 0.193333 -0.0321787 0.239897 
303 1 0.0111865 -0.125047 -0.829089 0.83854 
3006 1 0.051051 -0.0367638 0.179341 0.190055 
546 1 -0.091865 0.0530577 0.082855 0.134608 
3478 2 0.0744723 0.141783 0.0127494 0.160658 
2478 1 0.118942 0.137341 0.310599 0.359835 
677 1 0.0332991 -0.0022372 0.0495759 0.0597629 
2945 1 -0.022628 0.297974 0.0186201 0.299412 
3230 1 0.0886168 -0.012598 -0.101299 0.135178 
3651 2 0.560419 -0.220752 -0.419009 0.733736 
400 1 -0.192703 0.20462 -0.0569982 0.286797 
623 1 -0.0244793 0.0895043 -0.129842 0.159591 
3618 2 0.0890913 0.0973116 -0.0237306 0.134052 
1472 1 -0.379492 -0.0136085 0.168222 0.415329 
87 1 0.090731 0.484142 -0.0858963 0.500003 
727 1 0.11405 -0.0404586 -0.0465895 0.129672 
688 1 0.23781 -0.0416854 0.0847789 0.255888 
58 1 0.0609584 0.0537735 -0.313407 0.323777 
18 1 0.320825 0.327244 0.0715626 0.46383 
3514 2 0.249792 -0.112626 0.0534795 0.279179 
190 1 -0.136794 0.137638 -0.114571 0.225352 
298 1 0.0742994 0.0138774 0.077452 0.108221 
155 1 -0.238498 0.100837 0.0664388 0.267326 
1454 1 -0.237807 -0.0407116 -0.103843 0.262665 
424 1 0.0398027 -0.0020782 0.0502748 0.0641571 
106 1 -0.234493 0.0890002 0.0405026 0.254064 
217 1 -0.0501457 0.0943661 0.0748765 0.130484 
775 1 0.0258904 0.144001 -0.0227447 0.148067 
3627 2 -0.0636564 0.258158 0.0944939 0.282182 
626 1 0.0400636 0.0627639 0.13899 0.157679 
180 1 0.025468 0.0349853 0.149258 0.155404 
2939 1 -0.0349579 0.034025 0.16836 0.175285 
3118 1 -0.143229 0.213517 0.0843977 0.270605 
562 1 0.0360061 0.0456913 0.137899 0.149667 
70 1 0.0120998 0.170212 -0.0804875 0.188671 
121 1 -0.0121832 0.246255 0.0215467 0.247496 
1118 1 -0.0311844 -0.0589242 0.130993 0.146982 
210 1 0.040196 0.0738323 0.0355627 0.0912778 
4214 2 0.223787 -0.00996813 0.134139 0.2611 
65 1 0.0625809 0.0218732 0.139835 0.154753 
4034 2 0.107069 0.357631 0.42234 0.56368 
226 1 0.200105 0.0920571 0.146396 0.264477 
532 1 -0.0689065 -0.00374325 0.0248439 0.0733439 
3578 2 0.159058 0.0885224 0.372591 0.41468 
473 1 0.00713472 -0.105203 -0.152463 0.185374 
246 1 0.0112648 0.00858483 0.10312 0.104088 
817 1 0.0127719 0.0335061 0.306385 0.308476 
4289 2 -0.0978354 0.186592 0.088869 0.228661 
484 1 0.0612199 0.381043 0.423564 0.573017 
4071 2 -0.239766 0.152179 0.0359434 0.286249 
2838 1 -0.135407 0.0602464 -0.102952 0.180455 
536 1 -0.0734612 0.135792 -0.040075 0.159506 
894 1 -0.178392 0.0556443 -0.199941 0.273672 
289 1 -0.125873 -0.137717 -0.051298 0.193498 
351 1 -0.213587 0.168559 -0.145882 0.308728 
3135 1 -0.0436841 0.290625 -0.283319 0.408216 
2936 1 0.185372 0.156797 -0.0513156 0.248156 
1415 1 -0.0189736 0.272478 -0.0745832 0.283137 
527 1 -0.373524 0.12053 -0.124962 0.411902 
3002 1 -0.135248 0.334849 -0.056742 0.365562 
3189 1 -0.0838817 0.410734 0.00343984 0.419226 
712 1 0.00150419 -0.129655 -0.0144178 0.130463 
718 1 0.0354107 0.187553 0.0325189 0.193617 
3469 2 -0.0686602 0.226545 -0.0513889 0.242235 
4053 2 0.00144082 0.446484 0.0146453 0.446727 
110 1 -0.132606 0.0769376 -0.0356639 0.157403 
4177 2 0.306278 -0.428385 0.218564 0.570167 
93 1 -0.141356 0.274171 0.0619485 0.314625 
569 1 -0.0186302 0.182372 0.146241 0.234506 
639 1 -0.312179 0.148246 -0.0169256 0.346004 
3353 1 -0.286469 -0.083114 0.0397711 0.300922 
608 1 0.105039 0.0615346 -0.0142175 0.122564 
823 1 0.0363991 0.0910572 0.0416293 0.106533 
2596 1 -0.121476 0.0465469 0.237746 0.271009 
50 1 -0.0479368 -0.108926 -0.0143511 0.11987 
2495 1 0.00664352 0.224873 -0.000108983 0.224971 
28 1 -0.12764 0.176402 0.0239627 0.219052 
3055 1 0.0630426 0.0663819 -0.0986946 0.134616 
12 1 0.133333 0.19906 -0.175129 0.29677 
23 1 0.0509532 -0.0408658 -0.293683 0.300859 
738 1 0.0930182 -0.250347 0.0188486 0.267734 
232 1 0.0728482 0.118746 0.231865 0.270497 
4170 2 -0.315075 -0.0495591 0.178883 0.365688 
2453 1 0.0596772 0.166022 0.140998 0.225843 
3167 1 0.151684 0.08056 0.0499241 0.178858 
339 1 -0.0463252 0.217753 0.140144 0.263064 
4187 2 0.0760762 -0.226841 -0.599617 0.645589 
390 1 0.206236 0.130339 0.214903 0.325123 
203 1 0.0345871 0.0725998 0.00691231 0.0807142 
3582 2 -0.0486539 0.180546 -0.0391094 0.191033 
3632 2 -0.0531851 0.0822603 -0.0233646 0.100704 
231 1 -0.0689929 -0.0262334 0.0440611 0.0859627 
323 1 -0.0441564 0.23119 -0.0212944 0.23633 
3244 1 0.0208932 0.193801 0.0143234 0.19545 
118 1 0.0637411 0.0545158 -0.00520092 0.0840354 
2768 1 -0.124055 0.197518 -0.128569 0.266333 
3251 1 -0.328748 0.201738 -0.20169 0.435261 
2960 1 -0.614599 0.0703726 -0.101648 0.626911 
2735 1 -0.0364228 -0.0416522 0.112246 0.125142 
29 1 -0.0530466 0.361454 -0.15283 0.396005 
753 1 -0.00407005 -0.126352 0.00803129 0.126673 
553 1 -0.323478 0.107039 -0.625497 0.712279 
3467 2 -0.573698 -0.0764612 0.118048 0.590687 
3199 1 0.0750361 0.0617768 -0.0405817 0.105326 
4228 2 0.0168407 0.286476 -0.289743 0.407803 
437 1 0.330476 0.194201 -0.36288 0.527836 
53 1 0.247249 0.214016 -0.330317 0.464805 
593 1 -0.436036 0.356233 0.413629 0.698654 
609 1 0.373235 0.16892 -0.306879 0.511872 
3040 1 -0.549363 0.0548378 -0.0430577 0.553769 
3611 2 -0.0546304 0.0695106 0.0823792 0.120841 
96 1 0.00409824 -0.343218 -0.048612 0.346668 
3460 2 0.0594625 0.0468925 0.0334278 0.0827775 
167 1 -0.1178 0.159342 0.0959635 0.220172 
21 1 -0.218803 0.101403 0.0446756 0.245262 
725 1 -0.0703486 0.148516 0.0263141 0.166428 
610 1 0.0281078 0.212732 0.0634826 0.223774 
89 1 -0.173381 0.108348 0.0218723 0.205618 
3149 1 -0.0895649 0.124206 0.0407023 0.158448 
550 1 -0.0811012 -0.638532 0.122892 0.655289 
147 1 0.020228 0.172858 -0.00815348 0.174229 
247 1 0.154197 -0.0285447 -0.215925 0.266862 
255 1 0.0242557 -0.0960834 -0.0495505 0.110795 
3346 1 0.0721673 0.176078 -0.00599362 0.190388 
3554 2 -0.0173616 -0.59971 -0.168841 0.623266 
3786 2 0.0363674 0.124916 -0.0227482 0.132076 
5 1 0.0603262 0.176753 -0.0700395 0.199465 
2591 1 -0.0178985 0.224039 -4.46184e-05 0.224753 
3232 1 -0.0488905 0.159304 0.163952 0.23377 
1215 1 0.117664 -0.121859 0.0598294 0.17965 
859 1 0.289871 0.116325 0.0663988 0.319321 
3023 1 -0.0592869 0.376363 -0.0975596 0.393296 
3730 2 0.0379742 -0.249808 -0.215841 0.332315 
988 1 0.0566989 0.086747 -0.258297 0.278311 
2461 1 -0.0642527 0.151588 0.0903207 0.18779 
43 1 0.116383 0.0161158 0.0874255 0.146451 
151 1 0.0661054 -0.0452305 0.0525939 0.0958219 
3743 2 -0.0662932 0.148432 -0.0234065 0.16424 
3152 1 -0.0681464 0.0721013 -0.0335493 0.104729 
197 1 -0.148649 0.560143 0.184057 0.608057 
7 1 0.000630689 -0.217659 0.000419849 0.217661 
3586 2 -0.00555903 0.0818071 0.114498 0.14083 
920 1 -0.078086 0.0532646 0.179768 0.203104 
3916 2 -0.325987 -0.039166 0.0899197 0.340422 
737 1 0.168811 -0.0278354 -0.641945 0.664354 
3303 1 -0.0780586 0.337069 0.1318 0.370243 
215 1 0.0499346 0.113726 0.0847726 0.150378 
2500 1 0.216902 -0.240427 -0.249894 0.409022 
3188 1 0.199665 0.475889 -0.148914 0.537133 
140 1 -0.0794977 -0.0222232 0.0991247 0.128994 
691 1 -0.17392 -0.705959 -0.16963 0.746593 
216 1 0.103854 -0.109948 0.076829 0.169638 
174 1 -0.237886 -0.0976343 -0.0858125 0.271083 
3518 2 -0.208722 0.324126 0.0392602 0.38751 
143 1 -0.000509064 0.0952976 0.0355655 0.101719 
1179 1 0.178428 0.345436 0.00734647 0.388865 
354 1 0.169203 0.00898005 0.0539122 0.177811 
529 1 -0.116692 -0.118558 0.136817 0.215388 
3464 2 0.0306561 0.482175 -0.205999 0.525232 
1480 1 -0.179987 -0.228873 0.251922 0.385023 
2968 1 0.0828782 -0.0285837 0.0870873 0.123572 
98 1 0.221207 -0.241062 0.00780965 0.327268 
2994 1 0.0371765 0.027521 0.111682 0.120881 
1331 1 -0.362306 0.120933 0.16018 0.414183 
825 1 0.0396489 -0.0202524 0.0627843 0.0769679 
3354 1 0.22836 -0.106866 -0.0976621 0.270382 
4094 2 0.545327 -0.292849 -0.699756 0.934238 
1130 1 -0.040522 0.0084595 0.00597549 0.0418247 
3041 1 0.0906519 -0.160072 -0.0100941 0.184235 
604 1 0.251357 0.22488 -0.0706477 0.34459 
721 1 0.0394914 0.171491 -0.379779 0.41857 
40 1 0.0427729 0.224732 0.0681921 0.238713 
2995 1 -0.0290929 -0.0265443 -0.253266 0.25631 
3164 1 0.0965098 0.205278 -0.101746 0.248607 
64 1 0.00657474 -0.0417078 -0.13126 0.137884 
193 1 0.0424311 0.103731 -0.0158724 0.113192 
2996 1 0.0992019 0.170721 -0.124714 0.233539 
4212 2 0.037392 0.160407 -0.0587302 0.174865 
3279 1 -0.00518469 0.0881307 -0.0719808 0.113908 
178 1 0.0908009 0.0694973 -0.217294 0.245543 
44 1 0.0250474 0.0821812 0.0753018 0.114243 
343 1 0.372588 0.106891 -0.435056 0.582684 
949 1 -0.166152 0.0497997 0.0153061 0.174129 
3841 2 -0.0514354 0.171001 0.0175119 0.179426 
233 1 0.0749384 0.17027 0.230038 0.295846 
330 1 0.0272902 0.329353 0.123404 0.35277 
600 1 -0.219288 0.156954 -0.00295745 0.269686 
338 1 -0.186354 -0.0922341 0.190923 0.282288 
4101 2 -0.00367838 0.0654361 0.0751018 0.0996779 
3216 1 -0.0969005 0.115824 -0.107699 0.185483 
4217 2 -0.282872 -0.0705997 0.166812 0.335897 
479 1 -0.178747 0.0726834 0.143391 0.240405 
3335 1 0.0206461 0.0309152 0.0652238 0.0750744 
1457 1 -0.101295 -0.076705 -0.020192 0.128654 
3037 1 0.0674707 0.195013 -0.0948093 0.227093 
4253 2 -0.0221778 0.097227 -0.0964089 0.138707 
387 1 -0.0303532 -0.0778808 -0.00689942 0.083871 
3736 2 -0.212856 0.309381 -0.114236 0.392523 
214 1 0.0517788 0.125622 0.0835851 0.159526 
3408 1 -0.0188616 -0.0964664 0.22435 0.244938 
2931 1 -0.128788 0.00214544 0.167016 0.210915 
3394 1 -0.0680392 -0.206798 0.0246544 0.219095 
3130 1 -0.0856531 -0.134809 -0.121504 0.200682 
717 1 -0.2221 -0.106128 0.229798 0.336747 
508 1 -0.194509 -0.0904712 0.115344 0.243564 
3537 2 0.162052 -0.0726843 -0.121337 0.215097 
747 1 -0.114617 0.0113965 0.292412 0.31428 
497 1 -0.188244 -0.103474 0.0813249 0.229687 
958 1 -0.0725991 -0.307655 0.0850534 0.327347 
4163 2 -0.0597912 -0.113438 0.0706581 0.14641 
133 1 0.0467092 0.0903344 -0.0376225 0.108432 
4204 2 -0.0255263 -0.113658 0.0512557 0.127267 
86 1 0.434046 0.148466 -0.17955 0.492622 
759 1 0.0570848 0.0406956 -0.222445 0.233231 
3411 1 -0.221428 0.0816782 0.214772 0.319106 
835 1 -0.362607 0.343536 -0.0687023 0.504203 
3057 1 0.501545 0.152957 0.019486 0.524713 
312 1 0.422125 0.0262633 -0.47256 0.634186 
241 1 -0.0532819 0.163114 0.0831101 0.190663 
704 1 0.0990648 0.523585 -0.163735 0.557462 
157 1 0.12543 0.0974069 0.148824 0.217645 
54 1 -0.0858893 -0.00198748 -0.282041 0.294836 
493 1 0.132857 0.409253 0.043679 0.432489 
204 1 0.010218 0.10308 -0.126741 0.163686 
3599 2 0.0225121 0.165898 -0.0292357 0.169952 
254 1 0.0501412 0.175975 -0.117972 0.217713 
67 1 0.159641 0.135982 -0.135365 0.2496 
2988 1 -0.0271644 0.34613 -0.227376 0.415023 
3030 1 -0.0535894 0.223602 -0.0504436 0.235402 
674 1 0.052866 0.0549547 -0.221428 0.234191 
4050 2 0.216046 0.318501 -0.0707073 0.391303 
2004 1 0.0294372 0.0496789 -0.0463113 0.0740221 
2977 1 0.019572 -0.0910531 0.0664021 0.114381 
3479 2 0.0618522 0.256677 0.0646378 0.271821 
234 1 0.047836 -0.103029 0.0249511 0.1163 
1036 1 0.0944854 -0.0179272 -0.0400337 0.104171 
3369 1 -0.00816561 -0.000265326 0.0837627 0.0841602 
3607 2 -0.0308044 0.212155 -0.115971 0.243737 
3139 1 0.180331 -0.0578178 0.157143 0.246081 
644 1 -0.103181 -0.0922998 0.0965453 0.168779 
1278 1 0.177668 0.29858 -0.241532 0.423147 
4269 2 -0.0388382 0.0506895 0.317997 0.324345 
4089 2 0.186296 0.104419 0.124863 0.247387 
80 1 -0.139603 0.0429835 -0.0383684 0.151026 
640 1 -0.115189 -0.0574277 0.223459 0.257877 
199 1 -0.16444 -0.0312114 -0.0659718 0.179908 
245 1 -0.0317257 -0.125077 0.210153 0.246607 
2758 1 -0.14047 0.0216103 0.17762 0.227481 
3056 1 -0.121719 -0.149647 0.0745523 0.206804 
3468 2 -0.157764 -0.0618253 0.143362 0.221956 
563 1 -0.0866504 0.459551 -0.0684007 0.472624 
95 1 -0.0644072 -0.139516 0.0593903 0.164743 
3007 1 -0.025772 -0.00689926 0.174077 0.17611 
146 1 0.261593 0.175763 0.198007 0.372197 
2684 1 -0.424362 0.336579 -0.184843 0.572307 
3096 1 -0.176812 -0.0570399 -0.0834837 0.20368 
181 1 -0.0207367 -0.027053 0.200233 0.203113 
46 1 -0.0642823 -0.261041 0.0558279 0.274575 
3211 1 0.152106 0.13429 0.0842709 0.219708 
3603 2 0.0415507 -0.40905 0.155884 0.439714 
3679 2 -1.06207 3.40299e-05 -0.268628 1.09552 
446 1 0.0147292 0.0889633 0.0554809 0.105875 
1102 1 0.0980253 0.471187 -0.519736 0.708344 
66 1 0.132359 0.0966611 -0.634004 0.654846 
240 1 0.185539 0.356998 -0.34682 0.531184 
3701 2 0.190945 0.0803374 0.0152334 0.207717 
3513 2 -0.0174992 -0.153857 -0.559435 0.58047 
587 1 -0.0455999 0.0454029 0.130817 0.145787 
135 1 -0.0943934 -0.143008 -0.0813709 0.189691 
3512 2 -0.0873578 -0.0192964 0.0674001 0.112011 
3620 2 -0.166043 0.471893 0.200606 0.538977 
580 1 -0.180169 0.0680115 0.174541 0.259905 
134 1 0.153181 0.28225 0.0415889 0.323819 
191 1 0.172806 0.186482 0.0329501 0.256365 
195 1 0.0587704 0.13236 -0.108109 0.180723 
3608 2 0.0805752 0.0558872 0.0398292 0.10584 
685 1 0.0722087 0.268826 -0.144067 0.313428 
602 1 -0.0689773 0.31328 -0.0876944 0.332555 
3092 1 0.00618498 0.0867158 -0.170559 0.191437 
4195 2 -0.00914578 0.10159 -0.196697 0.221571 
540 1 -0.0694648 0.192545 -0.119017 0.236779 
182 1 0.118339 0.154782 -0.128505 0.233399 
103 1 -0.0400385 0.0601868 -0.035315 0.080453 
4173 2 -0.00955092 -0.0290415 0.153659 0.156671 
2950 1 -0.0105148 0.047588 -0.0241092 0.0543731 
6 1 0.0876678 0.129838 -0.0367839 0.160925 
690 1 0.024265 0.11361 0.0317399 0.12043 
902 1 -0.0443424 0.151519 0.189709 0.246808 
710 1 0.0800529 -0.0829408 -0.110067 0.159381 
2926 1 -0.247901 -0.129426 0.161679 0.323027 
742 1 0.212542 -0.0642214 -0.0169423 0.222678 
3115 1 -0.0924997 -0.0506493 0.0621831 0.122427 
3196 1 -0.045151 -0.357887 -0.731425 0.815539 
427 1 -0.0614081 -0.0369447 -0.00691358 0.0719976 
2934 1 -0.0737761 0.226857 -0.0449798 0.242756 
559 1 -0.0888284 0.14545 -0.156799 0.231586 
78 1 0.171607 0.101164 -0.0223504 0.200456 
249 1 -0.0933992 -0.0152201 0.14593 0.173927 
3003 1 -0.0424673 0.0766694 0.0283714 0.0921228 
3644 2 0.0315166 0.145489 -0.111238 0.185834 
257 1 -0.104576 0.0918219 -0.10837 0.176384 
3491 2 -0.353772 0.370209 -0.50331 0.718004 
237 1 0.0463057 0.244838 -0.0712426 0.259163 
2494 1 -0.00685928 -0.1106 -0.00358056 0.11087 
2981 1 -0.00479102 0.0017183 -0.0347726 0.0351431 
154 1 0.0663405 0.0418262 0.0896485 0.119111 
75 1 0.219182 0.0917551 0.0113835 0.237885 
1133 1 0.226339 -0.240364 0.0424304 0.332873 
205 1 -0.348805 0.0832314 0.0230056 0.359335 
694 1 -0.253926 0.0989076 0.0657672 0.280332 
861 1 -0.275946 0.0213762 0.116343 0.300232 
3549 2 -0.280835 -0.0650042 -0.0696218 0.296549 
3401 1 -0.149045 0.127039 0.062079 0.205444 
1077 1 -0.122142 0.118411 -0.0189325 0.171168 
4116 2 -0.0205621 0.0256064 -0.0157033 0.0364017 
353 1 0.0386832 -0.0309861 0.0838549 0.0974072 
3482 2 -0.224865 -0.27269 -0.0153109 0.353778 
3631 2 -0.0773223 0.0945257 0.212109 0.244753 
512 1 -0.0979182 0.0284815 0.140623 0.173707 
300 1 -0.132893 0.134642 0.175827 0.258271 
393 1 -0.171573 0.0234255 0.14804 0.22782 
2740 1 -0.222161 0.208553 0.163961 0.346024 
3393 1 -0.136584 0.0610884 -0.000243535 0.149623 
886 1 -0.249287 0.0542514 0.351043 0.433956 
772 1 -0.017169 -0.0889351 0.160455 0.184255 
221 1 -0.183846 0.179478 0.16742 0.306661 
4006 2 -0.40317 -0.133149 0.206803 0.472273 
364 1 -0.0751793 0.0125093 0.203857 0.217637 
1367 1 -0.15715 -0.00289762 0.0716879 0.172753 
411 1 -0.0813703 0.0903829 0.132954 0.180186 
277 1 -0.24139 -0.0810635 -0.0826166 0.267705 
635 1 -0.158286 -0.131791 -0.0186088 0.206808 
4014 2 -0.170159 -0.0940982 0.143418 0.241614 
3380 1 -0.0113447 -0.141367 0.0596324 0.153848 
903 1 -0.176702 0.143988 -0.104277 0.250659 
3389 1 -0.0555805 -0.119524 -0.0437164 0.138875 
3612 2 0.0114206 0.00309355 0.0109014 0.0160886 
357 1 -0.226312 0.027181 -0.10223 0.249813 
362 1 -0.103744 0.0688311 0.161443 0.203874 
478 1 -0.181257 0.135912 0.0181353 0.227277 
4159 2 -0.545357 0.511244 -0.0346862 0.748323 
2696 1 -0.101939 0.107441 -0.178009 0.231565 
966 1 0.064455 -0.0240628 0.148192 0.163384 
309 1 -0.0222965 0.0604564 -0.198487 0.208684 
4154 2 -0.136382 0.172862 -0.027055 0.221841 
780 1 -0.0874581 0.129558 -0.149435 0.216252 
4239 2 0.636275 1.37059 -0.514475 1.59626 
2710 1 -0.0392835 0.0303196 -0.142589 0.150977 
3313 1 -0.0526226 0.0812834 -0.0819358 0.126845 
3290 1 -0.118867 0.114154 -0.116108 0.201598 
924 1 0.00469424 -0.0131823 0.180795 0.181336 
3341 1 -0.185861 0.176822 -0.0564421 0.262671 
4257 2 0.498036 0.247272 -0.348974 0.65648 
100 1 -0.00220986 0.0874161 0.211154 0.228545 
3526 2 -0.160829 -0.210733 0.0580291 0.271371 
3333 1 -0.0412443 -0.0666764 0.11015 0.135203 
3249 1 -0.141438 0.158231 -0.232495 0.314794 
92 1 -0.21793 -0.330031 0.0224731 0.39613 
3379 1 -0.042262 0.0617084 -0.0137842 0.0760527 
1449 1 -0.106295 -0.102332 -0.0663169 0.161767 
3337 1 -0.0514148 0.108103 -0.12349 0.171986 
462 1 -0.132904 -0.0582267 0.115009 0.185151 
2966 1 -0.0241474 0.128918 -0.0623143 0.145211 
3022 1 -0.0314753 0.0888582 -0.007247 0.0945462 
750 1 0.0524575 0.106865 -0.0395513 0.125444 
3162 1 -0.136708 0.0471292 0.0250522 0.146758 
389 1 0.202862 -0.117777 -0.0622396 0.242689 
449 1 -0.0337493 0.0366926 -0.0551279 0.0743266 
601 1 -0.0675348 0.157737 0.0232373 0.173153 
3197 1 -0.278277 0.106714 -0.105842 0.316272 
468 1 0.103476 0.0242343 0.0602013 0.122142 
3350 1 0.220421 0.6641 -0.107404 0.707919 
3409 1 -0.00589312 -0.00410406 -0.0850859 0.0853884 
3209 1 -0.151612 0.0806227 -0.106599 0.202113 
3647 2 -0.315002 -0.00109439 0.167475 0.356756 
2890 1 -0.0434671 0.0808987 0.192919 0.213662 
1285 1 -0.189399 0.323856 0.443958 0.581251 
943 1 0.181571 0.0801066 0.21803 0.294826 
3305 1 -0.0403073 0.133363 0.0825641 0.161948 
287 1 -0.190526 0.0274296 0.0268909 0.19436 
3535 2 0.143762 0.144511 0.0352339 0.206863 
3531 2 -0.0721021 -0.0837633 0.0340198 0.115639 
3404 1 -0.120485 -0.0455532 0.00837387 0.129081 
356 1 0.120559 -0.091849 0.0244381 0.153518 
3785 2 -0.220356 0.197414 -0.232602 0.376341 
3392 1 0.159495 0.127429 0.201747 0.287017 
4318 2 -0.162008 -0.050694 0.141954 0.221286 
3883 2 0.0248181 0.12591 0.185564 0.225617 
3227 1 -0.0482582 -0.0619303 0.10974 0.134934 
373 1 -0.0444755 0.0744501 0.112694 0.1422 
4297 2 -0.0122519 -0.0623262 -0.0328605 0.0715155 
3221 1 0.0301432 0.024597 0.101655 0.108846 
3095 1 -1.04369 -0.277205 -0.335957 1.13093 
398 1 0.0680306 -0.0635468 0.00732342 0.0933809 
394 1 -0.0395497 0.239043 0.0107324 0.242531 
412 1 0.0186794 0.0432443 0.0112414 0.0484289 
3573 2 -0.100255 0.0489011 -0.222365 0.248774 
836 1 -0.0457274 -0.0740321 0.014927 0.0882868 
3360 1 -0.0218099 0.0442539 0.0113938 0.050635 
3319 1 -0.0484895 -0.0812531 -0.0868489 0.128437 
2365 1 -0.0357827 0.0290539 -0.216429 0.221283 
3588 2 -0.10817 0.0842324 0.070114 0.153987 
306 1 -0.155548 -0.0373872 -0.0453886 0.166293 
3093 1 -0.304649 0.259079 -0.314653 0.508861 
2745 1 0.0331914 0.289128 0.194138 0.349838 
3097 1 0.0323631 -0.00549274 -0.184129 0.187032 
771 1 -0.358944 0.264509 -0.100282 0.457014 
3324 1 -0.0470674 0.0599584 -0.148206 0.16666 
228 1 -0.178957 -0.00917583 -0.156955 0.238211 
951 1 -0.104809 0.135778 0.0667859 0.184068 
2737 1 -0.323318 0.008445 -0.061454 0.329215 
2959 1 -0.0531532 0.082106 -0.0297976 0.102248 
4284 2 -0.392249 0.00403779 0.143906 0.417833 
4225 2 -0.382034 0.490229 -0.101135 0.629684 
3483 2 -0.0989583 0.122877 -0.06571 0.170907 
286 1 -0.162635 0.00441244 0.04269 0.168202 
1389 1 -0.683408 0.0802936 0.354892 0.774236 
3676 2 0.120795 -0.0286227 0.0516877 0.13447 
2961 1 0.137234 0.104035 -0.144663 0.224909 
318 1 -0.176585 0.0850955 -0.0128389 0.196439 
2479 1 -0.0876624 0.343323 -0.129898 0.377397 
3617 2 0.0836807 -0.0563181 0.00955802 0.101319 
206 1 0.148449 -0.0790159 -0.0820048 0.187097 
71 1 0.177617 0.0169113 0.0660982 0.19027 
4185 2 0.0675335 -0.0961972 0.0309602 0.121545 
3561 2 0.0902378 0.0237365 0.0394205 0.101293 
3094 1 0.112768 -0.00559142 0.122476 0.166578 
444 1 0.0791776 0.131471 -0.000849672 0.153474 
388 1 -0.027238 0.0967583 0.174593 0.201462 
1313 1 0.118061 -0.0189049 0.0624333 0.134884 
3668 2 0.0927584 0.0998295 0.081096 0.158577 
838 1 0.0587508 0.0717966 0.128561 0.158538 
460 1 0.15631 -0.0216977 0.118475 0.197332 
499 1 0.0589473 -0.00411172 -0.0352611 0.0688116 
3548 2 -0.535051 -0.261007 0.200947 0.628319 
1324 1 -0.0288636 -0.055929 -0.0845436 0.105398 
614 1 0.17496 0.232472 -0.112233 0.31185 
291 1 0.011702 -0.0117274 -0.00537647 0.0174177 
482 1 0.0445661 0.0883084 -0.0298407 0.10332 
1314 1 -0.0116608 0.0918454 0.0798272 0.122245 
3672 2 -0.0681487 0.0972072 0.0548048 0.130756 
375 1 0.129586 -0.0425034 0.0137681 0.137072 
94 1 0.0816092 0.0278952 -0.0723786 0.112592 
4309 2 -0.124997 -0.0362523 0.078492 0.151985 
37 1 0.00707484 -0.0315717 0.101813 0.10683 
3281 1 -0.111934 -0.0617241 0.162131 0.206459 
1354 1 -0.0543127 -0.124221 0.0196958 0.136999 
3664 2 0.111307 -0.287725 0.0761977 0.317775 
901 1 -0.212347 0.0801119 0.10565 0.250343 
1212 1 -0.0657768 0.148158 0.11536 0.198961 
392 1 -0.0832887 -0.00136483 -0.069381 0.108409 
436 1 0.032184 -0.147453 0.0828176 0.172154 
792 1 -0.0416442 -0.00299788 0.0178683 0.0454148 
3293 1 -0.207068 0.128512 0.0558033 0.250012 
355 1 -0.124779 0.243867 0.108643 0.294694 
3150 1 -0.128584 0.034804 0.0390246 0.13881 
3546 2 -0.71481 -0.424846 -0.569709 1.00798 
3314 1 -0.072037 -0.0358214 0.0979507 0.126755 
3180 1 -0.0627165 -0.118381 0.0760234 0.154036 
3320 1 -0.2817 -0.301181 0.0919833 0.422523 
2861 1 -1.02133 0.246565 -0.671527 1.24694 
3658 2 -0.0246522 0.0589437 0.219742 0.228842 
265 1 -0.361191 0.351631 -0.37695 0.629439 
3808 2 0.0814078 0.105114 0.0680858 0.149371 
433 1 -0.121717 0.00686769 -0.037873 0.127658 
3412 1 -0.12718 0.0119428 0.246071 0.277251 
160 1 -0.117701 0.105189 -0.0951764 0.184328 
2873 1 -0.0378283 -0.161194 0.289537 0.333536 
1145 1 -0.0040663 0.00101372 0.20243 0.202474 
2628 1 0.196111 -0.0301824 0.145094 0.245811 
763 1 0.14338 0.00166408 0.119933 0.186935 
4271 2 0.131222 0.030851 0.0658103 0.150006 
1172 1 0.150921 -0.13077 0.0260074 0.201381 
652 1 0.182882 -0.0219544 0.045141 0.189645 
3568 2 0.0508535 -0.103188 0.0802988 0.140292 
3433 1 0.237236 -0.0502303 -0.0511265 0.247827 
3560 2 0.205348 -0.0420556 0.0135 0.210045 
3419 1 0.0658057 -0.0181445 0.0908985 0.113676 
248 1 0.143919 0.0654679 0.0525301 0.166608 
3678 2 -0.084918 0.0593526 0.112552 0.152977 
917 1 -0.0679253 -0.0565544 0.0350825 0.0950949 
3434 1 -0.0156093 -0.0779015 -0.0283675 0.0843624 
325 1 0.071908 -0.0423131 0.0706187 0.109308 
292 1 0.17667 -0.0401397 0.277459 0.331371 
3444 1 0.191776 -0.0461285 0.0950964 0.218973 
908 1 0.262268 -0.271902 0.0851508 0.387255 
3504 2 0.169986 -0.119916 0.1139 0.237167 
502 1 0.136984 0.00110322 0.0133097 0.137633 
423 1 0.156281 0.0134587 0.264977 0.307925 
3435 1 0.101143 -0.00775472 0.150099 0.181162 
107 1 -0.10048 0.0564824 -0.0398707 0.121968 
3312 1 -0.0627946 -0.0362941 0.12014 0.140335 
3331 1 -0.128914 -0.137849 0.0506461 0.195413 
4182 2 -0.163228 -0.150919 0.0631821 0.23111 
874 1 -0.0340599 -0.235684 0.195543 0.30813 
980 1 0.0134176 -0.138045 0.259302 0.294065 
225 1 -0.0491148 -0.22585 0.223323 0.321394 
810 1 0.194396 -0.0196698 0.0482226 0.201251 
439 1 0.0136033 0.0225181 0.0810186 0.0851829 
3487 2 -0.0123749 0.126123 0.0728035 0.146153 
187 1 -0.295217 0.15855 0.359455 0.491426 
822 1 0.110192 -0.178862 0.161844 0.265193 
4280 2 0.377387 0.301789 -0.309158 0.573651 
416 1 0.11886 -0.243629 0.132611 0.301775 
365 1 0.126572 -0.129532 0.197607 0.268044 
3799 2 0.018313 -0.22031 0.0317428 0.223337 
2819 1 0.00727186 -0.225152 -0.000371486 0.22527 
2776 1 -0.037971 -0.0997425 0.063274 0.124072 
295 1 0.0202024 -0.180944 -0.233317 0.295949 
3278 1 0.102498 -0.0881472 -0.183808 0.228169 
863 1 0.318707 0.337194 0.149272 0.487397 
382 1 -0.101752 0.24014 -0.126346 0.2898 
328 1 0.0224771 -0.127273 -0.0438986 0.136495 
957 1 0.0550111 -0.110862 -0.037802 0.129405 
795 1 0.0835181 -0.308808 0.0784552 0.329382 
490 1 -0.354198 -0.121329 0.101645 0.387955 
349 1 0.140606 -0.064122 0.156823 0.220171 
4256 2 0.0338307 -0.40041 0.156243 0.431144 
496 1 0.16997 -0.0881705 -0.0197737 0.192497 
2993 1 -0.28954 0.0463165 -0.401683 0.49732 
517 1 0.218603 -0.229482 -0.0794455 0.326743 
279 1 -0.046509 0.350201 -0.0547449 0.357492 
1337 1 0.418337 -0.103843 -0.322991 0.538621 
4285 2 0.0683754 -0.0235474 -0.406447 0.41283 
3266 1 0.0523722 0.125325 0.0381491 0.141084 
3643 2 0.0514634 -0.224077 -0.268084 0.353169 
3322 1 0.0716112 0.161709 0.0392523 0.181159 
3863 2 -0.167943 -0.167052 0.0403747 0.240294 
274 1 0.0219813 -0.0373982 0.110702 0.118898 
1091 1 0.07622 -0.110135 0.168473 0.215226 
3396 1 -0.0248106 -0.113138 0.0925836 0.148282 
329 1 0.00769566 0.0726361 0.0395959 0.0830847 
4028 2 -0.181467 0.109797 0.15784 0.264384 
2973 1 -0.446364 -0.1373 0.0670377 0.47179 
2545 1 -0.108492 -0.258676 0.0275823 0.281859 
3327 1 0.071565 -0.141432 0.0513845 0.166629 
3674 2 0.191028 0.0883974 0.282102 0.351976 
1418 1 0.342695 -0.0519818 -0.081163 0.355991 
443 1 -0.123951 -0.0588928 -0.0798714 0.158782 
855 1 0.228515 -0.0414664 -0.0702523 0.24264 
3476 2 0.30177 -0.102297 0.144113 0.349712 
208 1 0.084538 -0.154547 -0.0629766 0.187077 
4143 2 -0.328492 -0.147842 0.281216 0.456998 
2869 1 -0.105188 -0.199991 0.0998562 0.247047 
4307 2 -0.0263926 -0.16416 -0.0643652 0.178292 
177 1 0.0570592 0.0566538 -0.0403259 0.0899532 
363 1 0.0927271 -0.283788 -0.0873243 0.311062 
1450 1 0.137734 -0.0204382 -0.0433158 0.145824 
3559 2 0.0687398 0.0777973 0.214301 0.238123 
347 1 0.0916916 -0.026583 0.119153 0.152681 
4237 2 0.0822899 -0.206576 -0.0862182 0.238493 
319 1 -0.0943336 -0.163177 -0.0845089 0.206561 
307 1 -0.0243623 0.0788664 0.0198046 0.0848861 
781 1 -0.0498402 -0.162039 0.196957 0.259871 
268 1 -0.0371217 0.00849287 0.18501 0.188889 
830 1 0.162144 -0.137678 -0.0511336 0.218771 
937 1 0.057631 -0.125612 0.0236046 0.140203 
854 1 0.0770999 -0.0532267 -0.0708429 0.117457 
442 1 -0.0714854 -0.215575 -0.0274769 0.228775 
501 1 0.104259 -0.155077 0.0703823 0.199681 
314 1 0.00945175 -0.160211 0.00408808 0.160542 
3291 1 0.046469 -0.219564 0.0874192 0.240853 
3070 1 0.0528446 -0.114046 -0.179808 0.219385 
964 1 -0.0797217 -0.0663267 -0.403228 0.416351 
793 1 0.106304 0.0444364 0.00669546 0.115412 
3397 1 -0.177014 -0.0918146 -0.13377 0.240121 
899 1 -0.0412138 -0.073207 0.0245391 0.0875215 
3223 1 -0.171917 -0.0592924 0.00176914 0.181863 
1254 1 -0.0536215 0.0589036 -0.00824937 0.0800809 
474 1 0.346809 0.353141 -0.228629 0.545213 
419 1 0.610377 -0.203595 0.389615 0.752204 
3544 2 -0.0276641 -0.424614 -0.117411 0.441416 
1430 1 -0.0559039 -0.2375 -0.00296849 0.244009 
3200 1 0.0291796 0.144893 0.0716883 0.16427 
757 1 -0.191977 -0.118371 0.114732 0.253042 
4264 2 0.233983 -0.183817 0.125374 0.322886 
85 1 0.069976 0.0438472 0.173999 0.1926 
3240 1 -0.00900928 0.222719 0.249913 0.334876 
113 1 -0.0318408 0.0776507 0.0469472 0.096164 
504 1 -0.129598 -0.0108608 0.151153 0.199401 
3383 1 0.0292076 0.0621723 -0.00382347 0.0687975 
783 1 -0.262118 0.0584409 -0.0186092 0.269198 
404 1 -0.0162866 -0.209316 -0.0103657 0.210205 
2795 1 -0.0204899 -0.0186813 0.0232874 0.0362095 
581 1 -0.0627869 0.00727409 0.0871367 0.107647 
3541 2 0.0770231 0.0252705 0.0615317 0.101771 
786 1 0.190638 -0.13191 0.105113 0.254542 
800 1 0.0939449 -0.23428 -0.0637823 0.260348 
367 1 0.0936569 -0.0927744 0.207663 0.245973 
2687 1 -0.0175016 -0.0710243 -0.071447 0.102252 
3545 2 0.0178496 -0.040846 0.0163832 0.0474912 
491 1 -0.141117 0.0562095 -0.109361 0.187172 
402 1 -0.0994013 -0.102454 0.170189 0.22213 
1304 1 0.232299 -0.0606292 0.0577941 0.246939 
3420 1 -0.00166784 -0.137474 -0.0154246 0.138347 
2814 1 0.0510878 0.0445074 0.0152948 0.0694607 
1723 1 0.00813498 -0.0381324 -0.035278 0.0525813 
3264 1 0.0646979 -0.194363 0.0158074 0.205457 
440 1 -0.0284094 0.0149987 0.122992 0.127119 
431 1 0.0234677 -0.0688959 0.0891272 0.11507 
430 1 -0.179937 -0.148754 0.209283 0.313535 
4098 2 -0.113359 -0.233289 0.695751 0.742525 
968 1 -0.0263147 -0.18628 0.00416712 0.188176 
421 1 -0.100364 -0.138602 -0.0400717 0.175753 
801 1 -0.106585 -0.112913 -0.00783719 0.15547 
2656 1 0.0120771 -0.0587565 -0.0447964 0.0748659 
699 1 -0.176791 0.0842207 0.114417 0.226802 
3378 1 0.214295 0.23856 0.388435 0.503702 
840 1 -0.136524 -0.0615835 -0.231808 0.275983 
4152 2 -0.149564 0.0136709 0.0508678 0.158568 
3192 1 0.0456251 -0.147383 -0.224973 0.272793 
3339 1 -0.111446 0.0374159 -0.0502346 0.127843 
2884 1 -0.0527775 -0.103803 -0.0341784 0.121362 
461 1 -0.0355196 0.059683 -0.0508979 0.0861063 
3436 1 -0.0896608 -0.158944 0.0486519 0.188863 
486 1 0.0812328 0.0735813 -0.318257 0.336602 
3371 1 -0.020305 -0.00803688 -0.176581 0.177926 
647 1 0.150468 0.195389 0.382789 0.455351 
483 1 0.0360189 -0.0708387 -0.024924 0.0832868 
875 1 0.159854 -0.0120973 0.203928 0.259396 
1409 1 0.185939 -0.159533 -0.0811702 0.258094 
471 1 -0.15012 0.397161 -0.0713014 0.430531 
4298 2 -0.129732 0.0144786 -0.0244189 0.132801 
308 1 -0.0295757 -0.152363 -0.045018 0.161604 
3234 1 -0.116157 0.0827868 -0.0543269 0.152636 
128 1 -0.0574458 0.0488068 0.100149 0.125347 
907 1 -0.0963827 0.201387 0.026532 0.224834 
1641 1 0.035831 0.180431 -0.0482994 0.190189 
891 1 -0.110761 0.109348 0.0467908 0.162525 
1544 1 0.058318 0.0642003 0.0952449 0.128819 
1300 1 -0.0523052 -0.109383 -0.0960679 0.154691 
3788 2 -0.070969 -0.0149321 0.268451 0.278075 
1535 1 0.00295388 0.072982 -0.0527758 0.0901132 
573 1 -0.125378 0.106261 0.0742004 0.180324 
3844 2 -0.161082 0.10894 -0.0972525 0.217424 
631 1 0.0859509 0.159165 0.244267 0.303953 
606 1 0.0239979 -0.0190446 0.0904674 0.0955141 
3600 2 0.0744384 0.12274 -0.0308863 0.146834 
1474 1 -0.0662004 0.110703 0.382562 0.403722 
522 1 0.0144353 0.47348 -0.24871 0.535021 