ITEM: TIMESTEP
26000
ITEM: NUMBER OF ATOMS
4320
ITEM: BOX BOUNDS pp pp pp
0.0000000000000000e+00 1.9309999999999999e+01
0.0000000000000000e+00 1.9309999999999999e+01
0.0000000000000000e+00 9.6549999999999994e+00
ITEM: ATOMS id type c_displacement[1] c_displacement[2] c_displacement[3] c_displacement[4] 
381 1 -0.0833678 0.00335133 0.150901 0.172431 
327 1 -0.0081207 0.0920888 0.0837741 0.124757 
728 1 -0.0268207 0.0303844 0.205747 0.209701 
303 1 0.0817074 -0.153036 -0.798763 0.817385 
2478 1 0.255268 0.0272505 0.263974 0.368221 
484 1 0.0528142 0.334145 0.407139 0.529343 
4053 2 0.103361 0.213639 0.0850533 0.252109 
3611 2 0.024525 -0.0596884 0.0853255 0.10698 
43 1 -0.0116954 -0.0152111 0.128989 0.130409 
677 1 -0.0219162 -0.0717195 0.0352528 0.082866 
2945 1 0.0774715 0.28021 0.157657 0.330719 
3230 1 0.181201 0.0623395 0.00992822 0.191882 
3651 2 0.595578 -0.330317 -0.459057 0.821314 
400 1 -0.0555948 0.148759 0.0573644 0.168851 
623 1 -0.0356925 0.0403111 -0.0231984 0.0586268 
87 1 0.272116 0.491799 -0.109788 0.572684 
727 1 0.271784 0.112943 -0.068459 0.302174 
688 1 0.377218 -0.203183 0.132517 0.448484 
58 1 0.127684 -0.0337427 -0.473589 0.491658 
18 1 0.504149 0.350444 0.00523301 0.614007 
3514 2 0.266474 -0.270601 -0.0663523 0.385533 
1178 1 -0.0111407 0.121034 0.0330257 0.125952 
261 1 0.25668 -0.107787 -0.0580621 0.284384 
221 1 -0.0643663 0.0858578 0.0130105 0.108092 
190 1 -0.0889322 0.0139815 -0.129067 0.157362 
106 1 -0.160781 -0.186574 0.109257 0.269439 
217 1 -0.0137856 -0.068229 0.0947633 0.117581 
775 1 0.194397 -0.0902271 -0.050507 0.220186 
3627 2 0.0289181 -0.0527126 0.00755119 0.0605961 
180 1 0.00694949 0.0192509 0.24212 0.242983 
3118 1 -0.0417108 -0.0564953 -0.169726 0.183681 
100 1 0.12095 -0.0597909 0.063829 0.149258 
3743 2 -0.0288387 0.146167 0.0769662 0.167691 
118 1 0.28459 0.020147 0.0768954 0.295483 
562 1 -0.0795217 -0.00371303 0.00525345 0.0797814 
70 1 -0.0413917 0.0229757 -0.0831685 0.0956982 
121 1 -0.0127036 -0.136853 -0.118793 0.181664 
1118 1 -0.0427467 0.00799129 0.0404589 0.0593975 
232 1 -0.115857 0.0199295 0.00940529 0.117934 
210 1 0.0831611 -0.117473 0.312622 0.344163 
65 1 0.0112274 0.0359832 0.0739882 0.0830367 
215 1 -0.0364467 -0.0318342 0.103374 0.11414 
4289 2 -0.0629473 0.0435652 0.0181904 0.078684 
4214 2 -0.0461137 0.00872229 0.0461203 0.0658 
226 1 0.0709356 -0.0127583 0.0562294 0.0914132 
532 1 0.0277793 -0.0858531 0.172607 0.194771 
3578 2 0.01163 -0.0869262 0.256821 0.271382 
473 1 -0.0208327 -0.0256925 -0.156166 0.15963 
246 1 -0.00190887 -0.0690722 0.0539081 0.0876396 
3730 2 -0.142225 0.0606499 0.133153 0.204049 
817 1 0.0959319 0.00446664 0.219531 0.239618 
4071 2 -0.263503 0.202585 -0.0539305 0.336724 
2838 1 -0.0198715 0.0360011 0.0384758 0.0563147 
536 1 0.00105805 -0.0428547 0.0268009 0.0505562 
894 1 -0.105421 -0.0119516 -0.145317 0.179926 
289 1 0.0819376 -0.164098 0.165617 0.247125 
351 1 -0.0491102 0.00100333 -0.180762 0.187317 
3135 1 -0.00786353 0.167273 -0.179189 0.245257 
4034 2 0.292385 0.406969 0.584741 0.770087 
1415 1 0.15181 0.32739 0.0465457 0.363864 
527 1 -0.225485 -0.0102969 -0.060505 0.233688 
3002 1 -0.034725 0.110464 0.0468813 0.124924 
3189 1 0.125152 0.409313 0.0273096 0.428889 
712 1 0.0384256 -0.138773 0.0748736 0.162298 
718 1 0.102349 -0.00329515 0.14348 0.176275 
3469 2 0.165564 0.152957 0.188037 0.293539 
3916 2 -0.425368 -0.0844944 0.0510699 0.436675 
96 1 0.0715202 -0.167167 -0.0725117 0.19575 
3199 1 0.0980863 0.0353451 -0.125239 0.162957 
110 1 -0.0897699 0.222467 0.12224 0.269245 
4177 2 0.255143 -0.373351 0.281191 0.532501 
93 1 -0.0258296 0.250004 0.181568 0.310058 
569 1 0.106715 0.0688757 0.121207 0.175565 
639 1 -0.311783 -0.00906757 -0.134514 0.339684 
255 1 0.0530372 -0.177098 -0.0527657 0.192252 
167 1 -0.0925165 -0.00737221 0.0529236 0.106839 
3353 1 -0.281312 -0.0849025 0.171464 0.340213 
21 1 -0.0195898 -0.00156849 0.221622 0.222492 
823 1 0.00221581 -0.070927 -0.0257501 0.0754892 
2596 1 0.0308425 -0.0137817 0.0998881 0.105446 
50 1 -0.0619014 -0.199449 0.104595 0.233563 
2495 1 0.141416 -0.0089388 0.0352438 0.146016 
28 1 -0.119926 0.0237264 0.116405 0.168806 
3055 1 0.0856148 0.0803028 0.0379106 0.123352 
12 1 0.164191 0.22549 -0.123341 0.304988 
738 1 0.14398 -0.129152 0.0305252 0.195812 
4170 2 -0.104921 -0.119573 0.199537 0.255188 
2453 1 0.203452 0.00735168 0.0336875 0.206353 
3167 1 0.0278922 0.0645613 0.0318317 0.0771971 
339 1 0.195841 0.218435 0.0403579 0.296135 
390 1 0.384152 -0.106911 0.166037 0.431939 
988 1 -0.0333773 0.17082 -0.177429 0.248545 
3460 2 0.116266 -0.0641435 -0.102409 0.16769 
203 1 0.0655041 0.151792 0.0979244 0.192148 
3582 2 0.130608 0.290897 -0.0310937 0.320385 
3632 2 0.0956362 0.118467 -0.0703298 0.167711 
231 1 0.117492 -0.13238 0.121071 0.214446 
323 1 0.0526298 0.0939745 0.000938352 0.107713 
3244 1 0.146224 0.0135237 -0.160757 0.217732 
3251 1 -0.210843 -0.0268727 -0.1959 0.289057 
608 1 0.0181139 0.0477306 -0.133461 0.142893 
3006 1 0.124353 0.0587556 0.0306598 0.140911 
553 1 -0.443026 0.238296 -0.528657 0.72975 
2768 1 0.0153367 0.181111 0.00345288 0.181792 
2960 1 -0.351991 -0.15226 -0.168664 0.418961 
2735 1 -0.159746 -0.0903833 -0.0976165 0.207887 
29 1 -0.0911559 0.0874619 -0.101046 0.161769 
753 1 -0.171005 -0.197892 0.082485 0.27424 
3467 2 -0.458933 0.0372089 0.482189 0.666716 
151 1 -0.0605653 -0.204211 -0.0811316 0.227931 
155 1 -0.331758 0.0147222 -0.120594 0.353303 
3346 1 0.114596 0.0402966 -0.0107428 0.121949 
920 1 0.191818 0.0830089 0.104701 0.233767 
1454 1 -0.14474 0.0180898 0.0135305 0.146492 
437 1 0.128752 0.025868 -0.299153 0.326709 
53 1 0.208107 0.0248683 -0.240503 0.319011 
593 1 -0.170872 0.0577053 0.194406 0.265181 
609 1 0.24587 0.0608507 -0.183711 0.312897 
3040 1 -0.116551 0.0983077 0.0104469 0.152832 
4187 2 -0.0207368 0.0833495 -0.496668 0.50404 
59 1 0.036847 -0.100284 0.133322 0.170849 
3478 2 0.169463 0.0743616 -0.080914 0.201976 
725 1 0.00370439 0.0383925 0.142426 0.147556 
610 1 0.0788456 0.149881 0.0129188 0.169846 
89 1 -0.0295789 -0.0138132 0.0102761 0.0342244 
3149 1 -0.0244991 0.0997602 0.0859511 0.13394 
550 1 0.147391 -0.422833 0.189792 0.486347 
147 1 0.0143482 0.127565 0.274344 0.302891 
3554 2 0.0338534 -0.244014 0.0249179 0.247608 
247 1 0.171029 0.00754422 0.0831091 0.190302 
3152 1 -0.13109 -0.144282 -0.0498874 0.201223 
3712 2 0.0813862 -0.0717327 -0.0886928 0.140127 
3786 2 -0.0412782 0.124569 0.0730118 0.150173 
5 1 0.109075 0.137523 0.046803 0.18166 
2591 1 -0.0127505 0.142604 0.013367 0.143795 
3232 1 -0.060179 0.0390236 0.0544928 0.0900767 
1215 1 0.0557925 0.0335641 0.0693894 0.0951538 
859 1 0.0557732 0.0971003 0.00307843 0.112021 
424 1 0.0745237 0.0831305 -0.151454 0.188156 
298 1 0.15453 -0.117584 -0.15974 0.25144 
2461 1 -0.0501644 0.0131235 0.0369926 0.0636958 
23 1 -0.0562864 0.0553171 -0.107612 0.133448 
3023 1 -0.0668065 0.167397 -0.0432409 0.18535 
546 1 -0.132979 -0.016168 0.0307453 0.137442 
10 1 0.304136 0.0100638 -0.462508 0.553637 
3586 2 0.0623384 -0.0594137 0.0919481 0.125978 
3393 1 0.0487047 0.0055941 0.0444388 0.0661683 
3608 2 0.0341132 0.138773 -0.0591543 0.154664 
7 1 -0.0112231 -0.366272 0.0819806 0.375502 
568 1 0.213269 -0.147783 -0.058339 0.265945 
2939 1 -0.0252171 0.243788 0.134605 0.279619 
2500 1 0.134188 -0.289051 -0.193712 0.372936 
3188 1 0.096332 0.533057 -0.0362216 0.542901 
691 1 -0.164911 -0.700349 0.0233234 0.719881 
174 1 -0.31082 -0.0866841 -0.0511229 0.326706 
825 1 -0.00131429 0.201689 0.149106 0.250825 
3010 1 -0.0469802 0.119549 0.110568 0.169483 
529 1 -0.394538 -0.296265 -0.148784 0.515335 
216 1 0.233725 -0.23036 0.101185 0.343411 
135 1 -0.0424839 -0.189554 -0.0425214 0.198856 
2994 1 0.05002 0.0321823 0.0613151 0.0854239 
2494 1 -0.0128593 -0.191063 0.132962 0.23313 
3464 2 -0.108395 -0.536843 -0.18108 0.576836 
1480 1 -0.0819101 -0.166317 0.169843 0.251431 
2968 1 0.146399 -0.19452 0.16817 0.295891 
98 1 0.109231 -0.304193 0.0988552 0.33799 
133 1 0.140982 0.129806 -0.0224447 0.192949 
3041 1 0.0314208 -0.190617 -0.132052 0.234008 
40 1 0.0623927 0.0166421 0.0371902 0.0745179 
1331 1 -0.170588 0.00262702 0.0540395 0.178962 
4094 2 0.461975 -0.407978 -0.685228 0.921632 
1130 1 0.00388265 0.0581283 -0.019276 0.061364 
604 1 0.0761633 0.155412 0.0133904 0.173588 
721 1 -0.00976851 0.0975975 -0.08961 0.132856 
3164 1 0.0775546 0.0317511 0.0552782 0.100392 
241 1 -0.095722 0.128423 -0.0816791 0.179796 
3196 1 -0.131448 -0.136307 -0.697511 0.722758 
257 1 0.0220446 0.115806 0.0187752 0.119372 
64 1 -0.015504 -0.00244465 -0.121296 0.122307 
193 1 -0.10339 0.174561 0.0345197 0.205797 
2996 1 0.0890176 0.161413 -0.00583529 0.184425 
4212 2 -0.00722133 0.00420494 -0.0890972 0.0894882 
178 1 0.135674 0.0567716 -0.0563405 0.157495 
44 1 -0.034322 0.0341238 0.0231581 0.0536538 
3007 1 0.00109724 -0.0351331 0.0860497 0.0929521 
2931 1 -0.170929 0.0488537 0.157499 0.237506 
78 1 0.0587527 -0.000549952 -0.016151 0.0609347 
80 1 -0.144288 -0.0898146 -0.0711625 0.184255 
3279 1 -0.019442 0.205838 0.00571195 0.206833 
330 1 -0.0147309 0.153036 -0.0127232 0.154269 
600 1 -0.0855004 0.0735315 0.0593286 0.127425 
338 1 -0.078497 0.0315423 0.164061 0.184588 
4101 2 0.0899238 0.0351747 0.133545 0.164797 
3841 2 -0.13246 -0.161016 0.11898 0.240058 
949 1 -0.122005 0.117172 0.108794 0.201123 
3518 2 -0.115101 0.257913 0.0391393 0.28513 
563 1 0.0595091 0.137071 0.00295105 0.149461 
4217 2 0.0393389 -0.0158346 0.321205 0.323993 
479 1 -0.0373613 0.047838 -0.00554614 0.0609516 
3335 1 -0.0271149 -0.0578428 0.0956681 0.115036 
1457 1 -0.0117723 -0.111366 0.0111365 0.112539 
3037 1 -0.11276 0.0620449 -0.0482373 0.137446 
4253 2 0.132397 -0.0051647 -0.0740704 0.151797 
387 1 0.00490952 -0.0384071 0.0193371 0.0432797 
3736 2 0.0636855 0.244593 0.146416 0.292094 
3394 1 -0.0263079 -0.0974111 -0.00647843 0.101109 
3130 1 -0.041187 0.00486066 -0.135065 0.141289 
717 1 -0.218618 -0.100731 0.261459 0.355389 
508 1 -0.228146 -0.157216 0.14335 0.311956 
3537 2 -0.0140713 0.0177859 -0.0487795 0.0537939 
747 1 -0.0578569 0.00326013 0.203271 0.21137 
497 1 -0.0474714 -0.00361262 0.178045 0.1843 
958 1 -0.0226459 -0.239572 0.141179 0.278996 
4163 2 -0.0486949 0.0361305 0.186697 0.196297 
3003 1 0.0150107 0.00869418 0.0525466 0.0553359 
3408 1 0.00559218 -0.0541762 0.0980074 0.112124 
4204 2 -1.1229e-05 -0.24656 0.120047 0.274232 
86 1 0.380064 0.000592973 -0.0344421 0.381622 
759 1 0.139698 0.0380476 -0.193086 0.241341 
3411 1 -0.188879 0.0816734 0.162525 0.262221 
835 1 -0.281894 0.350257 -0.112658 0.463504 
3057 1 0.578543 0.193157 -0.0437787 0.611505 
3620 2 -0.0299225 0.585194 0.0805018 0.591463 
312 1 0.633714 0.132707 -0.428107 0.776196 
704 1 0.0105899 0.474128 -0.190155 0.510949 
157 1 -0.0537758 0.173772 -0.00617913 0.182007 
54 1 -0.181167 -0.000434649 -0.329049 0.375626 
493 1 0.0739022 0.308639 -0.0308063 0.318855 
204 1 -0.0143797 0.0160524 -0.189792 0.191012 
3599 2 -0.208447 0.181363 -0.085407 0.2892 
140 1 -0.0581154 -0.173181 0.125061 0.22138 
67 1 0.132671 0.128095 -0.0512443 0.191405 
2988 1 -0.00875523 0.296842 -0.0664469 0.304314 
3030 1 -0.237741 0.194255 0.0709308 0.315098 
674 1 0.128053 -0.00424681 -0.0284467 0.131243 
4050 2 0.142514 0.22605 -0.0625591 0.274449 
254 1 -0.0235372 0.160066 -0.17438 0.237873 
3216 1 0.0643803 0.129874 0.0739422 0.162725 
3479 2 -0.0292021 0.305197 0.0648213 0.313369 
234 1 0.0755694 -0.0405488 -0.00307363 0.085816 
1036 1 0.159196 -0.163975 0.132659 0.264253 
3369 1 0.0323955 -0.0223863 0.10693 0.11395 
3607 2 -0.106881 -0.135315 0.110543 0.204826 
3139 1 0.0402892 -0.0790875 0.0976953 0.131994 
644 1 -0.169302 -0.216774 0.0194488 0.27574 
4269 2 -0.00155432 0.0185395 0.15212 0.153254 
1278 1 0.0924824 0.0176042 -0.100971 0.138051 
214 1 0.19818 -0.00357363 0.120959 0.232205 
4089 2 0.101428 0.0795798 0.0625142 0.143278 
640 1 -0.0247719 -0.0459391 0.113982 0.125364 
199 1 0.0557604 -0.123782 0.0240768 0.13788 
245 1 0.0180586 -0.123435 0.114667 0.169443 
2758 1 -0.169376 -0.055544 0.0280146 0.180439 
3056 1 -0.0842179 -0.166 0.0159435 0.186823 
3468 2 -0.0874593 -0.164879 0.00173947 0.186648 
1133 1 0.094933 -0.0660203 0.129412 0.173546 
2977 1 -0.052872 -0.111447 -0.10752 0.163635 
249 1 -0.119675 -0.22073 0.218404 0.332783 
2684 1 -0.43667 0.518966 -0.226952 0.715202 
3096 1 0.109352 0.0610258 0.138346 0.186606 
181 1 -0.153806 -0.139901 0.271085 0.341637 
46 1 0.110517 -0.206892 0.0573515 0.241469 
3211 1 0.142845 0.0339087 0.10829 0.182431 
3603 2 0.0840245 -0.342951 0.186366 0.399259 
3679 2 -1.00665 0.130559 -0.376709 1.08273 
103 1 -0.127706 0.0796436 0.0938149 0.17735 
240 1 0.118942 0.404766 -0.396342 0.578852 
1102 1 0.223588 0.499776 -0.652046 0.851429 
66 1 0.328032 0.0584841 -0.682729 0.7597 
3701 2 0.112421 0.134999 0.152464 0.232612 
3513 2 -0.00996156 -0.165295 -0.546658 0.571188 
587 1 -0.052406 0.116933 -0.0298178 0.131563 
580 1 -0.0110472 0.0117453 0.111391 0.112552 
3512 2 0.155721 0.137041 -0.0238594 0.208803 
354 1 0.119986 -0.00163067 -0.0212754 0.121868 
2995 1 -0.114757 -0.146577 -0.182343 0.260582 
3491 2 -0.432829 0.301814 -0.554002 0.765082 
134 1 0.18219 0.267372 0.00897868 0.323669 
191 1 0.124844 0.197831 0.0842967 0.248655 
195 1 0.0399135 0.138304 -0.0626868 0.157006 
685 1 0.0218896 0.431888 -0.253586 0.501311 
3092 1 -0.0151455 0.0668606 -0.0743693 0.101146 
4195 2 -0.155449 -0.0820802 -0.246776 0.302985 
602 1 -0.350691 0.328983 -0.0286196 0.481698 
742 1 -0.0443242 -0.140587 0.0583095 0.158523 
446 1 0.0764113 0.045383 0.122642 0.151458 
2004 1 -0.226243 -0.130833 0.0174634 0.261931 
540 1 -0.120724 0.235036 -0.0886721 0.27871 
182 1 0.094234 -0.122417 -0.123786 0.197962 
4173 2 0.231021 -0.0378553 0.0500805 0.239398 
2950 1 -0.290118 -0.0774469 0.032472 0.302028 
6 1 -0.245663 0.0585263 0.0569496 0.25888 
427 1 -0.0503585 0.0253796 -0.0512469 0.0761994 
690 1 0.086416 -0.16655 0.0474227 0.193534 
95 1 -0.0676121 -0.117918 -0.0199279 0.13738 
902 1 0.0223343 0.196438 0.154774 0.251081 
710 1 0.0632769 -0.157926 -0.0799131 0.187965 
2926 1 -0.0364775 -0.365175 0.0478324 0.370097 
3115 1 -0.2582 0.0384003 0.137103 0.294854 
2981 1 0.018994 0.00939388 -0.00613524 0.0220603 
237 1 0.006607 0.111015 -0.0327779 0.115941 
3618 2 0.218021 -0.0153801 -0.264031 0.342757 
233 1 0.094449 0.0529324 0.224059 0.248847 
2936 1 0.0304252 0.117079 0.0845633 0.147595 
559 1 -0.184958 -0.0890322 -0.129353 0.242628 
4228 2 -0.0858206 0.162495 -0.0944056 0.206596 
205 1 -0.180926 -0.0146799 0.00699131 0.181656 
694 1 -0.299318 0.141372 0.124517 0.353669 
861 1 -0.213561 -0.0240626 0.158948 0.267304 
3549 2 -0.172232 -0.16132 -0.185524 0.300178 
3392 1 0.575095 -0.214312 -0.0285475 0.614393 
1077 1 -0.0838728 -0.0147558 -0.0689027 0.109544 
4014 2 -0.0958722 -0.137595 0.135661 0.215703 
3303 1 0.0538972 0.225169 0.219386 0.318961 
512 1 0.099538 0.0359013 -0.00173046 0.105829 
300 1 -0.0293561 -0.0385824 0.019135 0.0521203 
393 1 -0.103158 -0.153417 -0.0835357 0.202871 
2740 1 0.0926058 -0.0050654 -0.123927 0.154788 
3197 1 -0.0178238 0.112387 -0.0296311 0.117586 
286 1 -0.109637 -0.0769767 0.0177414 0.135132 
4006 2 0.0631051 0.203602 -0.13935 0.254665 
3341 1 -0.193147 0.0392101 -0.043499 0.20183 
966 1 -0.0958299 0.0182486 -0.00754423 0.0978432 
364 1 -0.134296 0.144498 -0.14678 0.245886 
1367 1 -0.139219 0.00914676 -0.106998 0.175824 
411 1 -0.135734 0.185471 0.000363019 0.229834 
277 1 -0.0265276 -0.0426501 0.0224428 0.0550129 
356 1 -0.031561 -0.0497235 -0.176244 0.185824 
772 1 -0.0905406 -0.288486 0.126609 0.327798 
3389 1 0.00534962 0.0456565 -0.156795 0.163395 
3380 1 0.12454 -0.0112623 0.0595481 0.138503 
3290 1 -0.05644 0.0839632 -0.0176825 0.102703 
3612 2 -0.0248551 0.379563 0.138525 0.404815 
357 1 -0.376399 0.146195 0.111422 0.418884 
362 1 0.0352119 0.112991 0.00248982 0.118377 
478 1 -0.266001 0.277565 -0.00950646 0.384564 
4159 2 -0.549887 0.677927 0.048615 0.874256 
3658 2 0.0493811 0.108514 0.230345 0.25937 
1324 1 0.089816 0.12908 0.174352 0.234792 
780 1 -0.237187 -0.0481904 -0.0841349 0.25624 
924 1 0.0655572 0.0180785 0.255449 0.264346 
4239 2 0.586622 1.48622 -0.386631 1.64392 
2710 1 -0.0903526 0.0707727 -0.126858 0.171071 
3313 1 -0.00856079 -0.0343597 -0.077711 0.0853983 
353 1 0.0672176 0.0140768 0.0208346 0.0717666 
3333 1 -0.0331808 0.0288223 -0.270526 0.274073 
3526 2 -0.27215 0.482862 0.0872295 0.561097 
3249 1 -0.0818905 0.0788479 -0.0348948 0.118915 
92 1 -0.4126 -0.455907 -0.0423249 0.616345 
3379 1 -0.0496341 0.0169654 0.100532 0.113393 
1449 1 -0.0348071 -0.0886013 0.087609 0.129372 
614 1 0.162978 0.103979 -0.0262627 0.195098 
228 1 -0.178642 -0.0777544 -0.0692228 0.206762 
160 1 -0.230102 0.271079 0.0380458 0.357601 
462 1 -0.115514 -0.131516 0.141865 0.225312 
2966 1 0.14118 0.0537708 0.0575623 0.161668 
3022 1 -0.0702565 0.0807604 -0.0788914 0.132974 
750 1 0.178256 0.0614669 0.0306755 0.191035 
3162 1 -0.119504 0.0185112 -0.0352055 0.125949 
449 1 0.116042 0.00413452 -0.122655 0.168899 
3483 2 -0.119355 -0.109617 0.0643888 0.174377 
334 1 -0.172772 0.114557 -0.180796 0.275065 
886 1 -0.119273 -0.0499086 0.34353 0.367055 
287 1 0.0195653 -0.0563515 -0.034052 0.0686865 
3209 1 -0.0482643 -0.140621 -0.056712 0.159122 
3409 1 -0.0200211 -0.123036 0.111019 0.166925 
3647 2 -0.320496 0.19496 -0.259731 0.456275 
2890 1 0.0515814 0.0341972 -0.162109 0.17352 
1285 1 -0.0664037 0.241672 0.400452 0.472416 
943 1 -0.140264 0.0159439 -0.141042 0.199552 
3305 1 0.0406852 0.114456 0.0151776 0.122416 
4318 2 -0.152135 0.130953 0.000471542 0.200734 
3404 1 -0.0980739 -0.0362997 -0.145135 0.178887 
3531 2 -0.246956 -0.0504873 -0.0207468 0.252917 
903 1 -0.0329871 -0.0385142 -0.199919 0.20625 
3883 2 0.0243324 0.100625 -0.210808 0.234857 
3227 1 -0.2159 -0.028259 -0.0702691 0.228799 
373 1 -0.158302 0.104032 -0.144511 0.238256 
4297 2 -0.180989 0.130087 -0.149743 0.268519 
398 1 -0.0941615 0.0188918 -0.152535 0.18025 
3221 1 -0.0859942 0.0801646 -0.113028 0.163085 
3337 1 -0.0108375 0.05218 -0.0985851 0.112068 
2696 1 -0.0981607 0.15828 0.0387851 0.190243 
2961 1 0.0331131 -0.19286 -0.152093 0.247838 
309 1 0.0388185 0.0751902 -0.117957 0.14517 
394 1 0.0949808 0.162253 0.0163827 0.188721 
412 1 -0.0258986 0.133466 0.0109112 0.136392 
3573 2 -0.016411 0.00690137 0.0278106 0.0330209 
836 1 0.0113906 -0.0483264 0.038872 0.0630573 
2365 1 -0.0301393 -0.00912797 -0.152479 0.155697 
3360 1 0.0688839 0.384771 -0.000157471 0.390888 
3319 1 -0.0266436 -0.00566917 0.146377 0.14889 
3588 2 -0.0913797 0.067646 0.299222 0.320094 
306 1 -0.0872014 0.182899 -0.237565 0.312239 
3093 1 -0.210514 0.103281 0.0492099 0.239593 
2745 1 -0.0255436 -0.0588733 -0.10954 0.126955 
3097 1 -0.0718446 0.0910585 0.0600033 0.13059 
3324 1 0.103781 -0.171722 0.183204 0.271704 
951 1 -0.159329 -0.0352888 0.0532844 0.171669 
2737 1 -0.188704 -0.114666 0.0206473 0.221774 
2959 1 -0.137787 -0.116376 -0.0264651 0.182288 
4284 2 -0.213778 -0.118426 0.130322 0.276965 
3350 1 -0.168824 0.865363 0.104208 0.887814 
3094 1 -0.0118662 -0.043864 0.0779543 0.0902316 
3678 2 -0.0665167 -0.115553 0.272988 0.303808 
3401 1 -0.0269423 0.040203 0.0570147 0.0747853 
1145 1 -0.133801 0.160279 0.0353466 0.211758 
601 1 0.132836 0.127678 0.0520611 0.191461 
3617 2 0.0464797 0.0334281 0.0905304 0.107115 
206 1 0.106172 -0.00299682 0.0720324 0.128336 
71 1 0.10953 -0.0142502 0.000731742 0.110456 
3561 2 0.0463395 0.000465972 0.0294693 0.0549182 
716 1 0.245813 0.0358833 0.0445203 0.252376 
4185 2 0.0338536 -0.216779 0.0513734 0.225341 
3676 2 0.285756 0.0218286 0.0938105 0.301552 
635 1 -0.236944 -0.101336 -0.184547 0.316969 
4116 2 -0.0886445 -0.1228 0.0780943 0.170401 
444 1 0.0828022 0.0725311 -0.0430014 0.118178 
388 1 -0.017906 -0.0560972 -0.0175121 0.0614344 
1313 1 0.0491726 -0.0699004 -0.0431999 0.0957614 
3668 2 0.0563262 0.209649 -0.0855695 0.23334 
838 1 0.102769 0.204752 0.122032 0.25957 
460 1 0.218113 -0.0317335 0.0691104 0.23099 
499 1 -0.00870393 0.0693693 -0.0106099 0.0707137 
3548 2 -0.135176 0.148092 0.0586519 0.208911 
763 1 0.141204 0.133342 0.137959 0.238225 
2479 1 -0.390343 0.457308 0.0358014 0.602313 
291 1 -0.0171819 0.144261 -0.0932689 0.172643 
482 1 -0.0823766 -0.208325 -0.230445 0.321387 
1314 1 -0.16786 0.0701782 -0.0461478 0.187701 
3672 2 -0.0114643 0.0542225 -0.0955138 0.110428 
375 1 0.21531 0.224424 -0.107794 0.329157 
94 1 0.0236834 0.225409 -0.00339532 0.226675 
4309 2 -0.195514 -0.0551885 0.0770006 0.217257 
37 1 0.234007 -0.305833 -0.249092 0.458629 
1354 1 -0.0260915 -0.278494 -0.0516098 0.284435 
392 1 -0.128042 -0.0657219 0.016695 0.144889 
389 1 0.127266 -0.179282 0.0260503 0.221399 
3546 2 -0.647912 -0.772964 -0.265682 1.043 
1212 1 -0.214112 0.0742606 0.0171036 0.227269 
901 1 -0.164017 -0.228285 -0.173076 0.330107 
436 1 -0.0807571 -0.1548 0.0211695 0.175877 
792 1 -0.148045 -0.358896 -0.0625032 0.39323 
3293 1 -0.159219 0.334643 0.0814434 0.379433 
318 1 -0.314017 0.439049 0.0075415 0.53984 
355 1 -0.025537 -0.0757769 0.648054 0.652968 
3281 1 -0.242686 -0.112419 -0.0591284 0.273917 
2861 1 -0.685925 0.379607 -0.371662 0.867598 
3314 1 -0.26352 -0.152923 0.236807 0.385883 
3180 1 0.176429 -0.491223 0.292705 0.598418 
3320 1 -0.118859 -0.164871 0.0143489 0.203755 
3095 1 -0.626599 0.371004 -0.321336 0.795944 
771 1 -0.199327 0.0091033 -0.0430417 0.204124 
626 1 0.0419197 -0.109458 0.189113 0.222491 
1389 1 -0.562445 -0.0910697 0.349278 0.668306 
2628 1 0.200263 0.0433578 0.196344 0.283789 
3808 2 0.198333 0.00525516 0.0806153 0.214155 
4271 2 0.0214765 0.115171 0.0947679 0.150687 
1172 1 0.0853412 -0.134519 0.0487624 0.166602 
652 1 0.195568 -0.0809064 -0.0131145 0.212049 
3568 2 0.0453775 0.0288829 0.0326483 0.0629226 
3433 1 0.0833515 0.000652564 0.0237631 0.0866751 
3560 2 0.0981884 -0.0941189 -0.063631 0.150161 
3419 1 -0.0569973 -0.0219933 0.0863043 0.105739 
4298 2 -0.01792 0.0406309 -0.00214272 0.0444588 
248 1 0.0253582 -0.0482337 0.175104 0.183387 
783 1 -0.394793 -0.066828 0.028231 0.401403 
1304 1 0.207177 -0.0179385 0.0989432 0.230291 
325 1 0.110793 0.00854451 0.155494 0.191119 
292 1 0.11706 0.0647556 0.0777013 0.154705 
3444 1 0.128679 -0.0301083 0.0312589 0.135801 
908 1 0.231773 -0.180841 0.0286836 0.295373 
3504 2 0.369148 -0.224521 0.122508 0.449097 
502 1 -0.0302688 -0.104013 0.131712 0.170537 
423 1 0.241789 -0.0223377 0.0632806 0.250929 
308 1 -0.12001 -0.124535 -0.307633 0.352915 
483 1 -0.0667274 0.0305987 -0.0875555 0.114258 
4182 2 -0.106349 -0.118299 -0.0541911 0.168052 
3331 1 -0.0431861 0.111848 0.0741976 0.140997 
874 1 0.0759601 -0.245128 0.0512673 0.261698 
980 1 -0.0939252 -0.0164019 0.248267 0.265946 
225 1 -0.128119 -0.155064 0.240968 0.313887 
439 1 -0.0406056 0.169004 0.0127559 0.174281 
3312 1 0.0147274 0.00698093 0.0584904 0.0607186 
810 1 0.00852833 -0.0515922 0.176969 0.184533 
107 1 -0.185213 -0.0548736 0.026803 0.195022 
863 1 0.123917 0.392453 0.208751 0.461467 
4280 2 0.257704 0.38138 -0.330428 0.566608 
416 1 -0.000912098 -0.174714 0.0858744 0.194679 
365 1 0.136238 -0.114808 0.0549284 0.186437 
3799 2 -0.178727 -0.0487366 0.00380713 0.185292 
2819 1 0.0656798 -0.0677173 0.0780157 0.122417 
382 1 -0.12936 0.10611 -0.400549 0.434089 
404 1 -0.0243108 -0.0505245 -0.0978888 0.112809 
875 1 0.0386389 -0.0224872 0.0835494 0.0947583 
2776 1 -0.0370743 -0.183971 0.0451987 0.193036 
957 1 0.0011359 -0.208781 -0.292143 0.35908 
795 1 0.0841531 -0.343951 -0.0284714 0.355239 
490 1 -0.306862 -0.125036 -0.10891 0.348797 
3266 1 -0.0389303 0.360744 -0.160352 0.396692 
3291 1 -0.0940928 -0.199307 -0.186427 0.288672 
2973 1 -0.398698 -0.0314314 0.0857409 0.409022 
4256 2 -0.212203 -0.462666 0.255721 0.569634 
496 1 0.0235782 -0.120667 0.309614 0.333133 
2993 1 -0.47219 0.212338 -0.248003 0.57407 
517 1 0.1745 -0.325167 0.0438928 0.371632 
279 1 -0.088149 0.268281 0.238832 0.369845 
1337 1 0.352766 -0.242178 -0.301904 0.523679 
4285 2 0.135971 -0.0663435 -0.401774 0.429316 
3192 1 0.230987 -0.0684735 -0.177876 0.299472 
4028 2 -0.177066 -0.0340635 0.160638 0.24149 
471 1 -0.0844108 0.438415 -0.0110611 0.446604 
917 1 -0.0309296 -0.169483 -0.0264855 0.174306 
3322 1 0.057973 0.0164325 0.0106003 0.0611822 
3863 2 -0.190839 -0.135174 0.061739 0.241875 
274 1 -0.0133098 -0.0932788 -0.0252009 0.0975355 
1091 1 -0.0359534 -0.150631 0.161012 0.223399 
3396 1 -0.0241529 -0.143095 0.0625648 0.158031 
329 1 -0.251919 0.0394735 -0.125247 0.284092 
3435 1 0.113146 -0.115559 -0.0364915 0.165793 
3327 1 -0.0414204 0.000955432 -0.0139081 0.0437035 
3674 2 -0.0213519 0.0871178 0.0681873 0.112672 
1418 1 0.137723 -0.0378456 -0.0437317 0.149373 
443 1 -0.178999 -0.0238179 -0.114949 0.214059 
855 1 -0.0364517 -0.115033 -0.175041 0.212605 
2545 1 -0.180312 -0.00993191 -0.0964332 0.20472 
3476 2 -0.0501751 -0.167363 -0.177143 0.248812 
3434 1 -0.0832098 0.040668 -0.233861 0.251533 
2869 1 -0.110015 -0.041395 -0.0753266 0.13961 
4307 2 -0.215033 -0.0453905 -0.0363533 0.222757 
177 1 -0.0204438 -0.0208533 -0.0357752 0.0461809 
363 1 -0.0316722 -0.109076 0.0390819 0.120117 
1450 1 -0.0965987 -0.0781945 -0.0263667 0.127047 
3559 2 0.0272284 0.0364606 0.308286 0.311626 
4237 2 -0.138725 -0.137819 0.00757794 0.195694 
647 1 0.250821 0.200801 0.272881 0.42154 
319 1 -0.207692 -0.0254164 0.0940157 0.229392 
295 1 0.00955914 -0.268916 -0.370423 0.457843 
822 1 0.159094 0.0324859 0.256682 0.30373 
830 1 -0.0319868 -0.0643369 0.127471 0.146326 
268 1 -0.0689679 0.161091 -0.0117127 0.175624 
937 1 -0.0378697 0.110402 0.0673827 0.134771 
854 1 0.178469 0.0321706 -0.0804801 0.198402 
442 1 0.0185293 -0.0439505 -0.141942 0.149742 
187 1 -0.10576 0.0242358 0.254996 0.27712 
3070 1 0.0596023 0.154776 0.0635847 0.177626 
314 1 0.110474 -0.0388002 -0.109103 0.160042 
964 1 -0.0504682 0.0511056 -0.197061 0.209742 
793 1 0.0425832 -0.119586 -0.0403989 0.133215 
3397 1 0.0144933 -0.12134 -0.096307 0.155591 
899 1 -0.0847163 -0.0999296 -0.0795084 0.153246 
419 1 0.501959 -0.129687 0.332227 0.615757 
3082 1 0.0646767 -0.0864083 0.123848 0.164279 
2873 1 0.144361 -0.0676127 0.201441 0.256885 
3643 2 0.00198204 -0.316391 -0.0151213 0.316759 
474 1 0.277156 0.244691 -0.222123 0.43131 
3544 2 0.0166329 0.177918 0.0612057 0.188886 
1430 1 -0.0477436 -0.115114 0.0795318 0.147838 
3200 1 0.115466 0.161816 0.275987 0.340126 
757 1 -0.0387965 -0.0380479 0.0436677 0.0697114 
1289 1 -0.063876 0.213795 0.000807848 0.223134 
654 1 0.0554118 -0.107108 0.0440028 0.12837 
85 1 0.0723355 0.0449338 0.234621 0.249596 
3240 1 -0.119134 -0.0276344 0.187228 0.223631 
113 1 0.0101572 0.0994801 0.0780365 0.126843 
504 1 -0.151473 -0.0205226 0.104989 0.18544 
3383 1 0.0878002 -0.0100053 0.0922493 0.127746 
2795 1 -0.166565 0.00880668 0.0514128 0.174541 
491 1 -0.111922 -0.0476113 -0.15241 0.194993 
307 1 -0.0566818 -0.0582795 0.0275707 0.0858456 
581 1 -0.161889 -0.11909 0.0143758 0.201487 
3541 2 0.0649974 -0.146749 0.0424695 0.166023 
786 1 0.0512255 -0.142416 -0.0448988 0.157867 
800 1 0.0622138 -0.166372 -0.123944 0.216593 
367 1 0.0065113 -0.126745 0.0413172 0.133469 
2687 1 0.0329601 -0.232538 -0.0551057 0.24124 
3545 2 0.0520056 -0.0451034 -0.137394 0.153675 
347 1 -0.0644014 -0.179266 -0.142272 0.237751 
781 1 -0.020906 -0.317417 0.0738 0.326553 
2814 1 -0.0888189 -0.0410346 -0.172674 0.198466 
1723 1 -0.0596537 -0.0648419 -0.208808 0.226636 
3264 1 0.0459041 -0.368531 0.0879094 0.381642 
440 1 -0.145456 0.0454888 0.114717 0.190753 
4154 2 -0.361344 0.320122 -0.166481 0.51065 
501 1 0.114168 -0.0640682 0.155101 0.202966 
431 1 -0.113037 0.203452 0.0299195 0.23466 
968 1 -0.00458511 0.105909 -0.0584869 0.121073 
421 1 -0.353494 0.0547209 -0.0583003 0.362425 
801 1 -0.227032 -0.106628 -0.0907926 0.266751 
2656 1 -0.00683163 0.104277 0.258151 0.278501 
461 1 -0.087479 0.248009 -0.0940336 0.279291 
4152 2 -0.291973 0.372091 -0.0548473 0.476139 
699 1 -0.0596004 0.189586 0.100063 0.222503 
2884 1 -0.0158808 -0.11496 -0.00497889 0.116158 
3371 1 0.0104725 -0.0217778 -0.250101 0.251266 
486 1 -0.123587 0.0658476 -0.278912 0.312092 
840 1 -0.00585992 -0.0243057 -0.0775457 0.0814766 
4098 2 -0.0126192 -0.305363 0.44517 0.539983 
3339 1 -0.0745256 0.23269 -0.0306764 0.246252 
3436 1 -0.0686435 0.0242768 -0.0202673 0.0755781 
3378 1 0.25767 0.233356 0.230103 0.416889 
4143 2 0.0713192 -0.122394 0.182501 0.231027 
402 1 0.107973 0.0475181 0.0408792 0.124849 
31 1 -0.228066 0.00467456 -0.154049 0.275259 
3278 1 0.101325 -0.201839 -0.111453 0.251848 
3420 1 -0.079409 -0.0317117 -0.0743927 0.113339 
3482 2 0.0847763 -0.0151595 -0.128684 0.154843 
433 1 -0.0770303 0.0704441 -0.206533 0.231413 
819 1 -0.116715 -0.151431 0.00856475 0.191382 
275 1 0.11818 0.154585 -0.0813435 0.210902 
4264 2 0.283259 0.016036 0.0452731 0.287302 
1442 1 0.0428266 -0.224223 0.0742359 0.240044 
3234 1 -0.17381 -0.0144097 -0.135677 0.220965 
3535 2 -0.0343725 -0.0115633 0.056513 0.0671483 
128 1 -0.11168 0.0264314 -0.0202794 0.116543 
907 1 -0.123845 0.175687 0.00562679 0.215023 
1641 1 -0.04603 0.157219 -0.123866 0.205376 
891 1 -0.128957 0.0685766 -0.0235227 0.147939 
1300 1 0.0289478 -0.0957033 -0.0930807 0.136606 
1544 1 -0.0392688 0.113461 -0.00645204 0.120238 
1535 1 0.0401007 0.101442 -0.020714 0.11103 
573 1 -0.0651401 0.100054 0.0298277 0.12306 
3844 2 0.0230143 -0.0418433 -0.0341865 0.0587303 
631 1 0.0610778 0.153219 -0.0443193 0.170795 
1105 1 0.131183 0.0430147 0.0889081 0.164207 
3600 2 0.178925 0.0895805 -0.117891 0.232244 
1474 1 0.00273253 0.213042 0.195693 0.289292 
4048 2 0.0481735 0.00607171 -0.0691777 0.0845169 
683 1 -0.0347092 0.0328967 0.0341517 0.0587644 
1569 1 -0.0787544 -0.139947 -0.0804871 0.179626 
63 1 0.0424012 0.100718 0.132824 0.172 
577 1 -0.109098 0.158541 0.132446 0.233623 
565 1 -0.033772 0.229113 0.223224 0.321656 
3616 2 0.0314304 0.232334 0.106285 0.257417 
3418 1 -0.0819578 0.107383 0.0260282 0.137571 
4176 2 -0.075939 0.130249 0.0175821 0.151792 
69 1 -0.0523789 0.0638328 0.113258 0.140162 
592 1 0.046985 0.119626 0.204998 0.241955 
2057 1 0.0535242 0.0381627 0.241588 0.250372 
172 1 -0.199257 0.169588 0.111889 0.284574 