ITEM: TIMESTEP
58000
ITEM: NUMBER OF ATOMS
4320
ITEM: BOX BOUNDS pp pp pp
0.0000000000000000e+00 1.9309999999999999e+01
0.0000000000000000e+00 1.9309999999999999e+01
0.0000000000000000e+00 9.6549999999999994e+00
ITEM: ATOMS id type c_displacement[1] c_displacement[2] c_displacement[3] c_displacement[4] 
381 1 -0.169603 -0.0828214 0.15259 0.24271 
303 1 0.124782 -0.121226 -0.60362 0.628191 
2478 1 0.420815 -0.455646 0.570643 0.842812 
327 1 0.121698 0.0204945 0.0642088 0.139115 
728 1 -0.0448816 -0.122753 0.208997 0.246501 
817 1 0.0571738 -0.0222345 0.288036 0.294496 
4289 2 -0.0863291 0.113252 -0.0101445 0.142765 
2945 1 0.311516 0.362913 0.0501412 0.480897 
3230 1 0.333775 0.139373 -0.0233942 0.362461 
3651 2 0.853243 -0.173725 -0.542027 1.02567 
400 1 0.0225743 0.00168299 0.168275 0.169791 
677 1 -0.0457895 -0.140447 0.1527 0.21246 
623 1 0.0293965 -0.0345653 -0.17431 0.180119 
727 1 -0.0715851 -0.0537079 0.250555 0.266058 
2936 1 0.0595601 0.197453 -0.11847 0.237845 
2939 1 -0.134027 -0.168547 0.438332 0.488372 
87 1 0.358068 0.641919 -0.147877 0.749761 
3514 2 0.575845 -0.173161 0.490476 0.775982 
688 1 0.487467 -0.101009 0.0919254 0.506239 
58 1 0.284897 0.00184503 -0.476573 0.55524 
18 1 0.459801 0.493795 -0.164385 0.694459 
110 1 -0.0725344 0.0599701 -0.0936424 0.132765 
197 1 -0.187746 0.852181 0.195904 0.894338 
255 1 0.00613004 -0.0357937 -0.163642 0.167623 
190 1 -0.252362 -0.031237 -0.208504 0.328841 
106 1 -0.27258 -0.139708 -0.0542358 0.311062 
217 1 0.0265996 -0.03456 -0.0629762 0.0766024 
775 1 0.0152931 0.105627 -0.176101 0.205919 
3627 2 0.0511452 0.14562 -0.0837177 0.175583 
608 1 -0.0917579 0.113437 -0.0863192 0.169524 
180 1 0.0936233 0.0873602 0.0252448 0.130516 
3712 2 -0.0291986 -0.0585271 -0.0739187 0.0987013 
3118 1 -0.0203211 0.102146 -0.129674 0.16632 
562 1 -0.0822601 -0.212417 0.0234255 0.22899 
70 1 0.0753018 0.106053 0.124235 0.179867 
121 1 0.0191559 -0.101716 0.018157 0.105085 
1118 1 -0.000729843 -0.0438923 -0.00918984 0.0448499 
4214 2 0.271573 -0.143262 0.169906 0.350919 
210 1 0.123045 -0.181647 0.307561 0.377796 
1888 1 -0.344211 -0.143359 0.184439 0.415994 
226 1 0.202564 0.101122 0.138512 0.265411 
532 1 0.0713976 0.0781384 0.0954739 0.142543 
3578 2 0.108194 0.045777 0.267417 0.292085 
473 1 0.0672318 -0.0217742 -0.0911385 0.115328 
246 1 0.0227404 0.0890857 0.032508 0.09752 
821 1 -0.607613 0.106148 -0.391756 0.730708 
261 1 0.235156 -0.148359 -0.185861 0.334444 
4071 2 0.0758533 -0.00443821 0.2708 0.281258 
2838 1 0.00668435 0.308231 0.0240766 0.309242 
894 1 -0.140912 0.108359 -0.0120407 0.178165 
351 1 -0.243038 0.0400236 0.00306109 0.24633 
3135 1 -0.135682 0.424651 -0.16955 0.476954 
289 1 -0.0358458 -0.236677 0.20358 0.314239 
4034 2 0.257071 0.573665 0.587876 0.860683 
536 1 -0.158359 -0.133344 0.0359829 0.210126 
3251 1 -0.0883723 0.0543103 -0.251158 0.271734 
484 1 0.0955103 0.594625 0.597558 0.848397 
1415 1 -0.255116 0.0278205 0.144616 0.294571 
527 1 -0.396292 -0.0177213 -0.114368 0.412846 
3002 1 -0.0776138 0.260211 -0.154466 0.3124 
712 1 0.0247206 -0.2774 0.0199721 0.279215 
3469 2 0.204414 0.433542 0.30879 0.570171 
718 1 0.0957774 0.250669 0.207114 0.338976 
96 1 0.0162532 -0.344571 -0.0521161 0.348868 
3808 2 0.172114 -0.129109 -0.00685234 0.215266 
10 1 0.316934 -0.319028 -0.332508 0.559274 
4177 2 0.519725 -0.486672 0.425247 0.829337 
93 1 0.1077 0.269834 -0.126847 0.317017 
569 1 0.0762896 0.0827493 0.285373 0.306766 
639 1 -0.22755 -0.0373869 -0.130612 0.265021 
21 1 -0.153765 -0.0537355 0.0604207 0.17373 
167 1 -0.155864 0.104356 0.0908728 0.208427 
3353 1 -0.189107 -0.0698623 -0.00776451 0.201749 
823 1 0.165027 -0.165093 -0.0319024 0.2356 
28 1 -0.0707002 0.0888941 -0.114737 0.161447 
2596 1 -0.0889105 -0.0644486 0.267628 0.289281 
50 1 -0.00169902 -0.294487 0.0482348 0.298416 
2495 1 0.111333 -0.0314876 -0.118351 0.16551 
3055 1 0.104996 0.0233232 -0.0162721 0.108779 
738 1 0.162689 -0.235637 0.00538666 0.286394 
3006 1 0.134142 0.0462905 0.126333 0.189992 
232 1 -0.134092 -0.0246296 0.0145206 0.137106 
65 1 -0.00213774 -0.00101032 0.0603088 0.0603552 
12 1 0.196035 0.053956 -0.0563705 0.210994 
4170 2 -0.116194 0.0228927 0.103881 0.157532 
2453 1 0.338572 -0.0550351 0.169659 0.38268 
3167 1 0.155211 0.0490993 -0.082451 0.182481 
23 1 -0.00600771 0.0957895 -0.318078 0.332243 
339 1 0.181646 0.338835 0.018476 0.384897 
390 1 0.435349 -0.0677795 0.223101 0.493859 
118 1 0.202992 0.0967704 -0.0609748 0.232998 
3582 2 0.125697 0.255954 -0.0480904 0.28918 
3632 2 0.0147824 0.0319819 0.0584916 0.0682835 
231 1 0.124369 -0.142462 0.177945 0.259668 
323 1 0.0560544 0.110478 0.0918456 0.154218 
3244 1 0.0931955 0.115964 -0.155207 0.214994 
4053 2 0.00592741 -0.0893797 -0.0826275 0.121865 
3460 2 0.128936 0.0772854 0.0973728 0.179106 
3467 2 -0.284161 0.321143 0.161206 0.458113 
2735 1 -0.167419 0.0632959 0.000896985 0.178987 
553 1 -0.730682 0.337711 -0.525774 0.961449 
2960 1 -0.120782 0.0808361 -0.224587 0.267511 
29 1 -0.162115 0.148651 -0.0714158 0.231255 
753 1 -0.0288389 -0.179356 -0.111865 0.21334 
4257 2 1.25551 0.861949 -0.441355 1.58557 
2768 1 0.12259 0.0181129 -0.133248 0.181966 
4187 2 -0.00951929 -0.126188 -0.614582 0.627475 
4228 2 -0.00355888 0.119184 -0.260949 0.286901 
424 1 0.0826345 0.0776297 0.00685594 0.113586 
53 1 0.230663 0.202587 -0.363831 0.476046 
437 1 0.109851 0.229652 -0.314964 0.404981 
593 1 -0.351557 0.274008 0.221577 0.497764 
609 1 0.267539 0.014114 -0.292403 0.39658 
3040 1 -0.311045 0.0896737 -0.184408 0.372554 
725 1 -0.295537 0.174549 0.084836 0.353563 
610 1 -0.0519528 0.029615 -0.0104167 0.0607013 
89 1 -0.201474 -0.0336289 -0.0773212 0.218407 
3149 1 -0.134916 0.137529 0.0410982 0.196991 
550 1 0.0638804 -0.560908 0.424712 0.706455 
147 1 -0.0321289 -0.0480538 0.0379316 0.0691393 
3554 2 0.418467 -0.556105 -0.0065796 0.695996 
737 1 0.0902323 -0.225914 -0.720451 0.760413 
103 1 -0.0442557 0.120412 -0.208797 0.245059 
3786 2 -0.0756182 0.0212456 -0.0230018 0.0818448 
5 1 0.0448427 0.14378 0.00661795 0.150756 
2591 1 0.0626645 0.0359763 -0.0681132 0.0993003 
3232 1 0.0665669 0.145367 0.0483148 0.167024 
1215 1 0.0345481 -0.263261 -0.130812 0.295993 
859 1 0.209668 0.0257704 0.0837336 0.227235 
3152 1 0.181774 -0.0445965 -0.0973266 0.210957 
988 1 0.0251245 0.0495797 -0.122369 0.134401 
1454 1 -0.0677291 0.0343562 -0.0935069 0.120462 
59 1 0.149907 -0.00744006 -0.00679895 0.150245 
3743 2 0.112896 0.189233 -0.0602535 0.228441 
151 1 0.0798489 -0.136999 0.059977 0.169534 
43 1 0.108134 -0.0749734 0.1532 0.201951 
3730 2 0.16052 -0.078203 -0.052142 0.186014 
3023 1 0.218065 0.463095 -0.368633 0.630793 
203 1 0.0351487 -0.0523284 0.0754952 0.0983525 
3346 1 0.0577026 0.10393 -0.000383704 0.118875 
3199 1 0.0761811 0.0894879 -0.0620439 0.132895 
3478 2 0.109615 0.122239 0.0604415 0.174959 
3611 2 0.173808 -0.0421197 0.00327254 0.178869 
2461 1 0.0534976 0.0667421 -0.0319435 0.0913065 
3916 2 -0.190814 0.000293814 -0.0689054 0.202874 
3586 2 -0.0134969 -0.0819115 0.13354 0.157241 
389 1 0.165127 -0.316675 0.0067157 0.357204 
7 1 0.163355 -0.423549 -0.0323455 0.45511 
949 1 -0.0182216 -0.00900577 -0.0942357 0.0964028 
1133 1 0.0709027 -0.0572441 -0.00852686 0.0915248 
2500 1 0.0265519 -0.085895 -0.0638463 0.110269 
3188 1 0.00779019 0.44595 -0.098948 0.456862 
140 1 -0.301517 -0.0890509 0.153425 0.349831 
529 1 -0.322546 -0.208404 -0.303919 0.48973 
825 1 0.0136292 0.0836861 0.0239529 0.0881071 
920 1 -0.0315881 0.00437547 0.0195394 0.0373998 
691 1 0.0618197 -0.426998 -0.0426462 0.433552 
98 1 0.14498 -0.101283 0.0153742 0.177521 
3464 2 -0.379478 -0.683817 -0.0148865 0.782197 
1480 1 -0.328734 -0.241525 0.195733 0.452451 
2968 1 0.156996 -0.165721 0.0528578 0.234319 
1331 1 -0.240536 0.0526897 0.177102 0.303314 
133 1 0.115778 -0.0217836 -0.128483 0.174319 
1179 1 0.0171671 0.162591 0.00562286 0.163592 
80 1 -0.150222 0.0438916 0.0494003 0.164115 
3643 2 0.00461144 -0.0456966 0.0146605 0.0482118 
1130 1 0.059195 -0.0407879 -0.102809 0.125448 
3041 1 -0.132039 -0.169466 -0.216128 0.304737 
604 1 0.345846 0.0466188 -0.26162 0.436151 
721 1 0.136569 -0.0646062 -0.357541 0.38815 
4094 2 0.554991 -0.420176 -0.742517 1.01779 
3164 1 0.059193 0.0296588 -0.0194718 0.0690116 
40 1 0.0753112 -0.0136323 -0.0603927 0.0974931 
241 1 -0.146554 -0.0547083 0.0891357 0.180045 
64 1 0.0228731 -0.211921 -0.121396 0.245297 
1102 1 0.0432324 0.542606 -0.407173 0.679764 
193 1 0.0342601 -0.0873796 -0.17611 0.199559 
2996 1 0.0267998 -0.0402165 -0.216432 0.221762 
4212 2 -0.102183 0.141814 -0.141885 0.225131 
44 1 0.0209937 -0.0480072 -0.0476762 0.070841 
3279 1 0.0993539 -0.156002 -0.00269647 0.184974 
2931 1 -0.114555 0.146611 0.0908885 0.207071 
330 1 0.00118964 0.285429 0.192239 0.344132 
354 1 0.224213 0.0241368 0.120273 0.255577 
600 1 -0.0379299 0.151171 -0.186583 0.243115 
338 1 -0.00556897 -0.227345 -0.186568 0.29415 
4101 2 0.107335 -0.163886 0.206994 0.285002 
3841 2 -0.0256467 -0.186127 -0.0457271 0.19337 
4217 2 -0.193146 -0.140867 0.00834223 0.239203 
3608 2 0.227938 0.0472649 0.0642315 0.241486 
3644 2 -0.011454 -0.085303 -0.0798362 0.117395 
78 1 0.0235724 0.178319 0.0432022 0.184986 
479 1 -0.056699 -0.0179227 -0.0400444 0.0716907 
3335 1 -0.0252307 0.127289 -0.0915532 0.158812 
1457 1 -0.166286 -0.22141 -0.0106923 0.277105 
3037 1 -0.0297483 0.151796 -0.00314104 0.154716 
4253 2 -0.0298527 -0.0772614 -0.0511817 0.0973656 
387 1 0.0687967 0.151627 0.097386 0.192893 
3736 2 -0.0938216 0.304034 0.0650898 0.32477 
174 1 -0.0250225 -0.0170303 -0.0323463 0.0442994 
717 1 -0.117289 -0.058663 0.270317 0.300448 
497 1 0.00911403 -0.0839131 0.187556 0.205674 
508 1 -0.113684 -0.0490138 0.0471701 0.132482 
3130 1 0.0178726 0.0247604 -0.131523 0.135021 
3537 2 0.134296 0.0760677 -0.00424172 0.154401 
747 1 -0.0808916 -0.00811659 0.132599 0.155537 
958 1 -0.0614076 -0.325223 0.142565 0.360369 
176 1 0.243052 0.186302 -0.0869162 0.318335 
446 1 0.168053 0.0252838 0.197317 0.260413 
4204 2 -0.156958 -0.112517 0.0671964 0.204478 
86 1 0.306149 0.0509187 -0.0425372 0.313256 
759 1 0.000325207 -0.02776 -0.112227 0.11561 
3411 1 -0.0849352 0.138834 0.138402 0.213645 
835 1 -0.435892 0.501118 -0.0453121 0.665714 
3057 1 0.422506 0.0692167 -0.0334963 0.429447 
3620 2 -0.194927 0.811424 0.0824433 0.838572 
216 1 -0.11372 -0.126456 0.0905994 0.192696 
312 1 0.462342 0.189051 -0.492144 0.701217 
704 1 -0.184106 0.545723 -0.253207 0.629144 
157 1 -0.012257 0.265264 0.0919586 0.281019 
54 1 -0.177867 0.0689954 -0.510544 0.545025 
493 1 0.00946617 0.330516 -0.0652219 0.337022 
3599 2 -0.218986 0.453257 0.0562723 0.506521 
204 1 -0.137739 0.18912 -0.116246 0.261249 
254 1 0.0561841 0.237824 -0.0213843 0.245304 
178 1 0.164412 -0.223816 -0.112322 0.299568 
2988 1 -0.0707584 0.338562 0.0337427 0.34752 
3030 1 -0.208 0.192967 -0.292188 0.407277 
67 1 0.0444216 0.100623 -0.114706 0.158921 
540 1 -0.171687 0.207314 -0.19952 0.335058 
1036 1 0.0514751 -0.00730229 0.0164132 0.0545197 
674 1 -0.00275775 0.126642 0.0216617 0.12851 
3216 1 -0.0786738 0.249761 -0.166594 0.310361 
3479 2 -0.00644908 0.346418 -0.0804551 0.355697 
234 1 0.0661317 -0.0129137 -0.0916172 0.113727 
3369 1 -0.0544915 0.045315 -0.0363346 0.0796428 
3607 2 0.0646089 0.160783 -0.113899 0.207361 
3139 1 -0.0151381 0.127578 -0.148854 0.196629 
644 1 -0.240628 -0.0682375 -0.127219 0.280612 
4269 2 -0.0158846 0.114424 0.144665 0.18513 
2934 1 0.0628526 0.0422116 -0.240525 0.252159 
4089 2 0.187317 0.163818 0.130297 0.280893 
214 1 -0.0662725 0.0224254 0.0396198 0.0804032 
640 1 0.0680437 0.0953463 0.0935234 0.149892 
199 1 0.00806826 -0.0616403 -0.0123145 0.063374 
245 1 -0.0106038 -0.00732954 0.146814 0.147379 
2758 1 -0.0235866 0.029053 0.0724385 0.0815337 
3056 1 0.0408732 0.0241143 0.0181736 0.0508173 
3468 2 -0.104649 0.000141185 0.187769 0.214962 
563 1 -0.0982286 0.166836 -0.0556724 0.201451 
3491 2 -0.413602 0.505508 -0.511186 0.829407 
3394 1 0.0197312 0.0100653 -0.0386099 0.0445124 
4163 2 -0.156119 -0.0264488 0.147473 0.216382 
2684 1 -0.492283 0.271551 -0.11929 0.574728 
3096 1 -0.205739 0.0457855 -0.135323 0.250474 
3211 1 0.122662 0.0593032 0.105062 0.172049 
181 1 -0.156921 0.00384189 0.198373 0.252964 
46 1 -0.037439 -0.254801 0.0908715 0.273099 
3603 2 -0.0410086 -0.265976 0.161277 0.313744 
249 1 -0.150894 -0.0631362 0.418871 0.449675 
233 1 0.217978 0.0608239 0.2743 0.355604 
240 1 0.0922345 0.445547 -0.348397 0.573061 
3701 2 0.0734467 0.133823 0.344693 0.376983 
135 1 -0.274985 -0.0408222 -0.0214133 0.278822 
66 1 -0.0997489 -0.170453 -0.623608 0.654134 
3513 2 -0.163104 -0.194778 -0.579011 0.632293 
587 1 -0.126554 0.110675 -0.0679382 0.181329 
3007 1 -0.0112146 -0.0397279 0.153237 0.1587 
134 1 -0.0384645 0.248621 0.0790766 0.263714 
3196 1 -0.00538614 -0.361843 -0.791016 0.869865 
154 1 0.0806515 0.0111645 -0.00159551 0.0814363 
95 1 -0.0160406 0.0310534 0.111584 0.11693 
4050 2 0.0442346 0.205491 -0.121665 0.24287 
257 1 -0.0182206 0.066112 -0.0885489 0.111999 
191 1 -0.117847 0.191467 -0.00699401 0.224937 
195 1 -0.146823 0.243851 -0.0635074 0.291639 
685 1 -0.10859 0.0799536 0.0352365 0.139377 
2995 1 -0.188438 -0.0818174 -0.107188 0.231716 
3092 1 -0.148798 0.0719822 0.0192062 0.166406 
4195 2 -0.271309 -0.0698337 -0.130004 0.308847 
602 1 -0.188609 0.127545 -0.131052 0.262708 
2004 1 -0.315605 0.00993394 0.00724177 0.315845 
182 1 0.0752841 0.0926386 -0.0940543 0.151973 
4173 2 -0.0684973 -0.0134326 -0.0593481 0.0916216 
2950 1 -0.188029 -0.0714009 -0.0751769 0.21472 
6 1 -0.183529 0.0308141 -0.0451401 0.191495 
427 1 -0.0229217 0.14361 -0.197121 0.244962 
690 1 -0.0246668 -0.00858184 -0.0768731 0.0811885 
902 1 -0.00628539 0.104993 -0.106122 0.149416 
580 1 -0.0865225 -0.0112699 0.231595 0.247486 
1278 1 0.0301775 0.0758365 -0.0881884 0.120163 
2926 1 -0.0888706 -0.0588847 -0.0334158 0.111723 
710 1 0.0346664 -0.083698 -0.0833993 0.123136 
742 1 -0.177103 0.00574914 -0.104273 0.2056 
3115 1 -0.217235 0.109511 -0.0892639 0.259137 
3518 2 -0.157061 0.313754 0.120236 0.3709 
2977 1 0.0283746 -0.0769689 0.0493326 0.0957237 
3408 1 0.0127511 -0.0185044 0.169272 0.170757 
3618 2 0.237532 0.142481 -0.304876 0.411912 
1991 1 0.109399 0.105164 0.159919 0.220458 
3679 2 -0.827489 -0.205075 -0.0743174 0.855755 
1149 1 0.0927504 -0.0767736 0.236121 0.265047 
559 1 0.00920148 0.0728929 -0.110643 0.132816 
215 1 -0.0662227 -0.00350213 -0.0226665 0.070082 
3512 2 -0.236147 0.253826 0.0864387 0.357302 
205 1 -0.322904 0.142013 -0.0716869 0.359963 
694 1 -0.168941 0.0645846 0.0503149 0.187734 
861 1 -0.205513 -0.131295 0.118669 0.271213 
3549 2 -0.106623 0.0624077 0.0657263 0.13994 
3320 1 -0.425246 -0.548375 0.283843 0.749744 
1077 1 -0.108506 -0.0293144 0.0536019 0.124524 
3612 2 -0.134848 0.316663 -0.0847058 0.354449 
3392 1 0.232994 0.0070077 -0.0765059 0.245333 
3526 2 -0.0702622 -0.20596 -0.258013 0.337531 
512 1 -0.109978 0.186179 0.0865745 0.232923 
300 1 -0.0964348 0.0406214 -0.089566 0.137738 
393 1 -0.10873 0.0150114 0.0635917 0.126852 
2740 1 0.0214424 0.274414 -0.00868722 0.275388 
155 1 -0.171139 0.126317 -0.112924 0.240824 
924 1 -0.00529502 -0.0595799 0.202913 0.211545 
286 1 -0.00615404 -0.196682 -0.014252 0.197293 
100 1 -0.0493204 -0.0462897 -0.000858807 0.0676459 
3658 2 0.0218041 0.0449692 0.190371 0.196822 
277 1 -0.161303 0.000930461 0.0184743 0.16236 
364 1 -0.120858 0.0354751 0.0232279 0.128081 
1367 1 0.0363143 -0.0602995 -0.102128 0.124036 
411 1 -0.130936 0.0307544 0.0531309 0.144613 
3303 1 -0.0446944 0.168062 -0.0360735 0.177605 
771 1 -0.144204 0.106562 0.0226109 0.180725 
3363 1 0.221135 -0.0338544 -0.0515576 0.229576 
966 1 -0.0797368 0.0267309 0.0655447 0.106624 
3631 2 -0.0175864 0.0133699 -0.0455537 0.0506277 
3389 1 0.098964 -0.0709012 -0.0783327 0.144765 
362 1 -0.10633 -0.0186551 -0.0108222 0.108495 
478 1 -0.0597656 -0.0410519 0.107169 0.129392 
2696 1 -0.152401 -0.365025 -0.70396 0.807483 
309 1 -0.196019 0.215275 -0.161106 0.332749 
160 1 0.120723 -0.0991398 0.298418 0.336832 
614 1 0.214568 0.105305 0.0252602 0.240347 
3401 1 -0.0538493 0.0429803 0.0381857 0.0787731 
265 1 -0.0660262 0.423837 -0.199664 0.473141 
763 1 0.00752912 0.135203 0.238189 0.27399 
780 1 -0.155167 0.0625885 -0.332558 0.372275 
2710 1 -0.171902 0.340761 -0.493658 0.623992 
3313 1 -0.200005 0.0132488 -0.163385 0.258597 
3588 2 0.588234 -0.988577 -0.806926 1.40515 
2365 1 -0.284236 0.117967 -0.275686 0.413169 
306 1 -0.320743 0.195213 -0.361146 0.520971 
221 1 -0.0313428 0.1945 -0.0402609 0.201081 
4014 2 -0.172702 -0.0233091 0.0428142 0.17945 
353 1 0.0303184 -0.0299979 0.00802439 0.0433989 
903 1 -0.232882 -0.446724 0.0357263 0.505047 
3333 1 -0.244481 0.16163 -0.26693 0.396418 
3249 1 -0.23988 0.150314 -0.153469 0.322009 
1449 1 -0.0159771 -0.28626 -0.0364519 0.289014 
92 1 -0.574047 -0.55337 -0.2582 0.838102 
3379 1 -0.217786 0.0399396 0.234852 0.322771 
2873 1 0.243688 -0.655889 0.365491 0.789404 
4284 2 -0.141911 0.713337 0.780031 1.06651 
462 1 -0.0916775 -0.0525059 0.0765819 0.130485 
2966 1 0.0539963 -0.0506458 -0.0796771 0.108761 
750 1 -0.0597398 -0.00980797 -0.0698757 0.0924536 
3162 1 -0.171143 0.0273479 0.000539339 0.173315 
449 1 0.0800447 0.0332563 -0.169856 0.190694 
3022 1 -0.00703203 0.198633 -0.0443756 0.203651 
3013 1 0.642004 0.070172 -0.511562 0.823887 
4264 2 0.130752 -0.0380333 -0.044357 0.143214 
886 1 -0.108006 0.14036 0.0445652 0.182626 
3393 1 -0.0180187 0.0153819 -0.0526128 0.0577008 
287 1 -0.219705 -0.0645759 0.0485229 0.234083 
3209 1 -0.0454134 0.0362289 -0.176706 0.186011 
3647 2 -0.125084 0.0329466 -0.0652564 0.144879 
2890 1 0.0771733 0.0774527 0.0152041 0.110389 
1285 1 0.0184116 0.0752897 0.219018 0.232328 
943 1 -0.0115868 -0.0690636 0.0229807 0.0737031 
4318 2 -0.0533345 -0.0896361 0.043038 0.112834 
3409 1 0.0760921 -0.0667532 -0.0868094 0.133349 
4006 2 -0.182547 0.0735089 0.0354289 0.199955 
1354 1 0.122327 -0.515227 0.0290911 0.530348 
356 1 0.138118 -0.0409187 0.149314 0.207475 
3404 1 -0.0492437 -0.0949173 -0.0903787 0.140009 
3531 2 0.0411479 -0.147752 -0.10681 0.186901 
3883 2 0.209614 -0.117492 0.0455586 0.244577 
3227 1 0.0864772 -0.0820657 0.130913 0.177063 
373 1 0.0551893 0.0717935 0.187234 0.207982 
4297 2 -0.0121904 -0.0258386 0.0321117 0.0429813 
398 1 0.0600744 -0.0838683 -0.0600014 0.119344 
1324 1 -0.00603976 -0.0620958 0.000653423 0.0623923 
4159 2 -0.053948 -0.00339099 0.276655 0.281887 
3221 1 -0.0934724 0.178984 0.0617463 0.211152 
394 1 0.197588 0.320468 -0.0145451 0.376765 
412 1 -0.0732922 0.256951 0.0215144 0.268064 
836 1 -0.0928121 -0.20962 0.221637 0.31887 
3360 1 -0.241046 0.0839385 0.21444 0.333367 
3573 2 -0.377236 0.167572 -0.497087 0.646129 
3319 1 0.275965 -0.558685 0.0119615 0.62324 
3097 1 -0.0393288 -0.0816583 -0.497838 0.506022 
3093 1 -0.586077 -0.00832957 -0.324397 0.669918 
3324 1 0.119507 -0.379716 0.154925 0.427163 
2745 1 -0.027769 -0.0307694 -0.0146204 0.0439503 
2479 1 0.141904 0.150878 -0.0902423 0.22593 
3180 1 -0.309313 -0.309966 0.127922 0.456199 
3337 1 0.400949 -0.0507878 0.0520804 0.407494 
951 1 -0.204753 -0.142661 -0.0257884 0.25088 
3483 2 -0.017028 -0.288103 0.0576891 0.294315 
228 1 -0.0368811 -0.298848 0.203266 0.363301 
2737 1 -0.257948 -0.130496 0.110496 0.309476 
2959 1 0.0221158 -0.394767 0.234197 0.459542 
716 1 0.0270705 0.0242242 -0.0884966 0.0956623 
3305 1 0.20716 0.00397525 0.0577567 0.215097 
601 1 -0.0771618 0.155957 -0.058967 0.183722 
3617 2 0.156227 -0.0317617 0.0249937 0.16137 
206 1 0.0238211 0.0258624 -0.010742 0.0367655 
71 1 0.092005 0.0716851 -0.0141871 0.117494 
4185 2 0.121687 -0.167056 -0.0316458 0.209086 
3095 1 0.0740465 0.0185889 -0.0166441 0.0781374 
4116 2 -0.180871 -0.0465082 0.0870141 0.206031 
3197 1 -0.219908 -0.125868 -0.152166 0.295562 
3350 1 -0.0642276 1.10724 0.884443 1.41857 
838 1 0.0686808 0.156542 0.121048 0.209464 
3676 2 0.155279 -0.00933856 0.0748732 0.17264 
1313 1 0.16216 0.0697216 -0.0103156 0.176814 
3561 2 0.0596672 0.200223 -0.0310615 0.211221 
388 1 0.0293889 0.0212943 0.0982328 0.104723 
3668 2 0.137067 0.276397 0.132497 0.335765 
460 1 0.0813629 -0.0517537 0.137345 0.167815 
499 1 0.00866435 0.0803664 -0.00945853 0.0813836 
444 1 0.113266 0.128297 0.0396986 0.175686 
3548 2 -0.445925 -0.203931 -0.061001 0.494124 
482 1 0.104715 -0.212603 -0.213223 0.318794 
318 1 -0.0988368 0.137519 -0.142751 0.221491 
291 1 -0.0343119 -0.0466265 -0.0949887 0.111239 
1314 1 0.0949487 0.234386 -0.107398 0.274748 
375 1 0.175396 -0.120403 0.126493 0.24751 
94 1 -0.259666 0.347595 -0.263737 0.507745 
37 1 -0.0308285 -0.288675 -0.0933893 0.304968 
4309 2 -0.548601 -0.25915 -0.240111 0.652514 
439 1 -0.302552 -0.0946507 -0.422851 0.528488 
3094 1 0.0764964 -0.0777204 0.0237714 0.111612 
3672 2 -0.280853 0.243975 -0.0354568 0.37371 
392 1 0.0368878 -0.113788 -0.0314565 0.123684 
3341 1 -0.095785 -0.0197099 -0.0461039 0.108115 
1212 1 -0.0866177 0.1586 0.00711002 0.180851 
901 1 -0.12288 -0.0426534 0.0176788 0.131269 
436 1 0.120868 -0.145996 -0.192949 0.270468 
792 1 0.00860355 -0.244782 -0.140092 0.282166 
3293 1 0.0180541 0.123633 0.136033 0.184705 
3314 1 0.0892696 -0.332044 0.0126187 0.344067 
2961 1 -0.418201 0.126165 -0.110601 0.450602 
3546 2 -0.59204 -0.43261 -0.492606 0.883359 
3150 1 0.40116 1.11768 -0.841506 1.45543 
490 1 0.278074 -0.174138 -0.849546 0.910702 
355 1 -0.625612 -0.089453 0.575761 0.854923 
3290 1 -0.140675 0.0725439 -0.0938844 0.184028 
1145 1 0.0901991 -0.012741 0.101843 0.136639 
626 1 -0.0151907 -0.108035 0.084483 0.137984 
433 1 0.0434623 0.0338974 0.0790938 0.0964045 
3257 1 -0.237119 0.0147881 -0.565035 0.612951 
3482 2 -0.0562484 -0.0965477 -0.0456735 0.120712 
3535 2 0.0678949 0.193568 -0.049333 0.210979 
4271 2 0.0433068 0.19878 0.115805 0.234093 
1172 1 0.102167 -0.0067955 0.0160729 0.103646 
652 1 -0.0113473 -0.0889754 -0.0546308 0.105023 
3568 2 0.0900206 0.0121165 -0.0128521 0.0917371 
3419 1 -0.0913309 -0.0805343 0.0786236 0.144944 
3560 2 0.00708868 -0.106985 -0.0533505 0.11976 
1254 1 0.012475 0.0715494 0.0394651 0.0826585 
875 1 0.133995 -0.00354773 0.216718 0.254821 
3082 1 0.109264 0.0682492 0.0871658 0.155546 
3420 1 0.0642266 -0.182807 -0.123633 0.229845 
325 1 0.04143 -0.00520093 0.0327016 0.0530367 
292 1 0.0572178 -0.0799426 0.0672503 0.11911 
3444 1 0.0418132 -0.0830996 -0.00303376 0.0930757 
908 1 0.213272 -0.225431 0.0094471 0.310472 
3504 2 0.140531 -0.161934 0.111903 0.241855 
423 1 0.02203 -0.169593 -0.00811721 0.17121 
502 1 -0.00669087 -0.0718154 0.140275 0.157732 
430 1 -0.133949 -0.102676 -0.0178572 0.169716 
4182 2 0.493702 -0.0939334 -0.491345 0.702841 
874 1 0.0566167 -0.254622 0.253973 0.364061 
980 1 0.0343342 -0.380335 0.0587663 0.386377 
225 1 -0.00927236 -0.271957 0.24861 0.368583 
3331 1 0.0970752 -0.00133571 -0.268268 0.285294 
810 1 0.0982204 -0.0297856 0.0261818 0.105924 
357 1 -0.373307 0.442976 -0.542827 0.793881 
4307 2 -0.060171 -0.148553 -0.121937 0.201388 
3678 2 -0.199371 -0.0690257 0.0275162 0.212769 
404 1 -0.0346123 -0.130486 -0.155258 0.205741 
4280 2 0.347393 0.241103 -0.291183 0.51342 
416 1 0.136925 -0.167659 0.149362 0.262996 
365 1 0.114294 -0.153316 0.105903 0.218596 
3799 2 0.245834 -0.334318 -0.249303 0.484102 
2819 1 0.0556442 -0.327468 0.0870321 0.343375 
2776 1 -0.141285 -0.277782 -0.0856661 0.323207 
295 1 0.0907859 -0.0798735 -0.255025 0.28224 
382 1 -0.138134 0.0761376 -0.28691 0.327407 
3380 1 0.20712 -0.0469244 0.172577 0.273648 
3291 1 0.0991533 -0.106403 -0.027031 0.147931 
957 1 0.304415 -0.095549 -0.086716 0.330632 
2973 1 0.112689 0.410401 -0.0386703 0.427345 
474 1 -0.350577 -0.197377 -0.659334 0.772388 
3070 1 0.0769723 -0.0661597 -0.155175 0.185421 
863 1 0.104535 -0.491066 -0.35302 0.613756 
795 1 0.27195 -0.406444 -0.311753 0.579951 
3266 1 0.0203787 -0.0276717 -0.110507 0.115727 
107 1 -0.205504 0.130272 -0.0405141 0.246666 
783 1 -0.535571 -0.00161173 0.094215 0.543797 
517 1 0.294372 0.000384589 -0.10773 0.313466 
4256 2 -0.204929 -0.515995 0.165871 0.579448 
496 1 0.145512 -0.0106412 0.269168 0.306167 
2993 1 -0.412888 0.0197982 -0.322901 0.524532 
279 1 0.0491196 0.277154 0.149864 0.318883 
4285 2 0.0584037 -0.193382 -0.429289 0.474443 
1337 1 -0.0274401 -0.0440862 0.000716968 0.0519333 
699 1 0.114103 0.170698 0.0128133 0.205721 
3434 1 0.0477247 -0.0525766 -0.0552015 0.0899396 
483 1 0.0951044 -0.000289813 0.0527659 0.108762 
3433 1 -0.0084358 0.0766773 0.0554832 0.0950208 
3312 1 -0.0224824 -0.0587601 -0.146657 0.159582 
4028 2 -0.235834 0.291551 0.232925 0.441445 
917 1 0.0911719 -0.164592 -0.0352693 0.191433 
3322 1 0.124548 0.174283 0.153252 0.263387 
3863 2 -0.151089 -0.0472951 0.0686373 0.172557 
274 1 0.111025 -0.0599795 -0.076846 0.147748 
1091 1 0.0534733 -0.0253041 0.165009 0.175293 
3396 1 0.0543492 -0.0396653 0.126377 0.143172 
248 1 0.0362626 -0.0582529 0.138134 0.154238 
3435 1 0.0390199 -0.0317424 0.150328 0.15852 
2545 1 -0.160579 0.0599462 0.0218487 0.172791 
3327 1 -0.0993831 -0.116483 0.00400467 0.153171 
3674 2 0.0350962 0.153476 -0.105763 0.189664 
1418 1 0.131966 -0.058343 -0.017364 0.145329 
443 1 -0.077739 -0.120543 0.0815212 0.164984 
855 1 -0.0022848 -0.0822447 -0.108576 0.136228 
3476 2 0.0405612 -0.0545934 0.0717686 0.0988756 
3223 1 -0.231445 0.0889495 -0.0611219 0.255372 
2869 1 -0.213844 -0.169934 0.11855 0.29776 
177 1 -0.0236027 0.0637348 0.197115 0.208503 
363 1 -0.0966715 -0.244004 -0.253524 0.364908 
1450 1 -0.158056 0.0176431 -0.0190017 0.160169 
3559 2 -0.0978345 0.0304439 0.0364012 0.108736 
319 1 -0.196426 0.0379602 -0.123056 0.234876 
347 1 -0.0842102 0.0205855 0.0324329 0.0925581 
4237 2 -0.00426722 -0.0484374 -0.21597 0.221377 
268 1 0.176657 0.00412834 0.11331 0.209914 
830 1 0.0434013 -0.0203075 -0.218481 0.223674 
937 1 -0.000394503 -0.0349169 -0.0530452 0.063507 
854 1 0.0703466 0.0149879 -0.0312632 0.0784262 
442 1 -0.106911 -0.159967 -0.144881 0.240852 
501 1 -0.0481134 -0.0192727 0.0798943 0.0952336 
314 1 -0.236535 -0.103602 0.137944 0.292764 
3545 2 0.0123045 0.0330649 -0.1963 0.199445 
964 1 0.353411 0.151764 -0.720123 0.816399 
793 1 0.57147 -0.0601501 -0.308796 0.652343 
3397 1 -0.000264106 -0.135402 -0.362354 0.386826 
486 1 0.19156 0.18207 -0.559165 0.618474 
419 1 0.828279 -0.25351 -0.0540535 0.867891 
899 1 0.123524 -0.121434 -0.167966 0.241282 
307 1 0.0257981 -0.0408633 0.0215631 0.052918 
402 1 0.0544709 0.155762 -0.135571 0.213561 
822 1 0.22074 0.0457441 0.116545 0.253775 
757 1 -0.0615489 0.0586826 -0.0134203 0.0860932 
3544 2 0.0308847 0.170094 -0.0184643 0.173858 
1430 1 -0.0252286 -0.00918095 -0.00871098 0.028225 
3200 1 0.0692169 0.204727 0.129022 0.251696 
3278 1 -0.0282271 0.0805344 -0.110716 0.139787 
187 1 -0.145953 0.0302193 0.189378 0.240997 
329 1 -0.197935 0.113103 -0.152687 0.27438 
3383 1 -0.078932 -0.013744 -0.00900266 0.0806238 
3240 1 0.105806 0.0556341 0.130921 0.177286 
113 1 0.20125 -0.0688491 -0.0498804 0.218472 
504 1 -0.037311 -0.0824384 -0.0132422 0.0914525 
85 1 0.206834 0.0214721 0.0926676 0.227659 
31 1 0.0102304 -0.0484994 -0.07935 0.093559 
2795 1 -0.101659 -0.0671841 0.150549 0.193683 
581 1 0.0387337 -0.0412297 0.152444 0.162602 
3541 2 -0.170988 0.190286 -0.0799569 0.268028 
786 1 0.0374028 0.00925779 0.0327937 0.0505975 
800 1 -0.0266562 0.00133114 -0.0169141 0.0315976 
367 1 0.155682 -0.188662 0.0877048 0.259851 
2687 1 0.0097731 0.0345144 -0.0491553 0.0608523 
491 1 0.0399513 0.020891 0.0787029 0.0907011 
22 1 -0.0298932 -0.0324708 -0.0939252 0.103778 
2814 1 0.00698117 0.103526 -0.0754745 0.128307 
1723 1 -0.0823601 0.00867783 -0.144664 0.166692 
3264 1 0.012787 -0.159765 0.067329 0.173843 
440 1 -0.194963 0.0732178 0.068234 0.219151 
431 1 0.0149431 -0.0135323 0.0802509 0.0827444 
4098 2 -0.124479 -0.0920371 0.47231 0.497033 
647 1 0.210915 0.223355 -0.0985531 0.322623 
471 1 -0.023755 0.309063 -0.203172 0.370625 
2656 1 -0.0743094 0.0223564 -0.134904 0.15563 
801 1 0.0489297 -0.106012 -0.0592341 0.130925 
968 1 0.00344102 0.0039993 0.187092 0.187166 
421 1 -0.0288424 0.0117953 -0.134006 0.137581 
4152 2 0.111726 0.0515092 0.0432609 0.130413 
1304 1 0.287457 -0.0533325 0.0433774 0.295563 
3378 1 0.0991767 0.305039 -0.0451334 0.323916 
840 1 -0.0845321 0.0358486 -0.407616 0.417829 
2884 1 0.0408332 -0.0905851 -0.155316 0.184381 
3436 1 -0.00689689 -0.0731371 0.0329074 0.0804954 
3192 1 0.0907361 0.056725 -0.623169 0.63229 
461 1 -0.0890068 0.114694 -0.187281 0.236962 
3339 1 -0.300989 0.380369 -0.4417 0.656028 
3371 1 0.14051 0.0638295 -0.37762 0.407939 
4143 2 -0.0608209 -0.0287134 -0.156767 0.170586 
781 1 0.0791046 -0.176834 -0.100101 0.218055 
308 1 0.0791891 -0.0587132 -0.0580157 0.114385 
3281 1 -0.16496 -0.0815132 0.182234 0.25897 
4154 2 -0.217236 0.195121 -0.0873198 0.304776 
128 1 -0.0950919 -0.079303 -0.0823719 0.148716 
907 1 -0.0888309 0.0285748 0.0331999 0.0990438 
1641 1 -0.0882368 0.0982825 -0.0569405 0.143831 
8 1 -0.0520092 -0.186028 0.0250474 0.194778 
1049 1 0.0499861 -0.046431 0.247405 0.256639 
519 1 -0.305371 0.441759 -0.39853 0.668751 
1535 1 0.0346735 0.0365843 0.218547 0.224284 
573 1 0.0886548 0.0734034 0.0232108 0.117416 
3844 2 0.236532 0.128865 0.210672 0.34196 
631 1 0.104295 0.0586545 0.0883131 0.148718 
3600 2 0.318541 0.0902978 -0.065537 0.337517 
606 1 0.055623 -0.193692 0.0736698 0.214564 
1474 1 -0.00115313 0.115402 0.144669 0.185062 
337 1 -0.179186 0.0056066 0.0816552 0.196994 
63 1 -0.0916753 -0.122904 -0.0156879 0.154129 
1516 1 0.105274 0.00955676 -0.0081003 0.106017 
2057 1 0.0339965 -0.0698511 0.295778 0.30581 
577 1 -0.0974643 0.0732613 0.216415 0.248399 
565 1 -0.120074 -0.0590039 0.101647 0.168022 
3616 2 0.087029 0.216277 -0.0543549 0.239383 
3418 1 0.00814238 -0.153764 0.190952 0.245301 
4176 2 -0.0472673 0.0970123 0.0575095 0.122282 
69 1 0.0551502 -0.00697758 0.222876 0.229704 
298 1 0.305029 0.173717 -0.111913 0.368436 
797 1 -0.341705 0.334162 0.324644 0.577772 
4319 2 -0.018265 -0.051907 0.0898824 0.105389 
655 1 -0.199452 -0.0377586 0.31169 0.371964 
1053 1 -0.0840671 -0.0644555 -0.05479 0.119263 
621 1 -0.00612644 -0.0744107 0.180062 0.194927 