ITEM: TIMESTEP
42000
ITEM: NUMBER OF ATOMS
4320
ITEM: BOX BOUNDS pp pp pp
0.0000000000000000e+00 1.9309999999999999e+01
0.0000000000000000e+00 1.9309999999999999e+01
0.0000000000000000e+00 9.6549999999999994e+00
ITEM: ATOMS id type c_displacement[1] c_displacement[2] c_displacement[3] c_displacement[4] 
381 1 0.00673662 -0.0269468 0.237467 0.239086 
303 1 0.142122 -0.225156 -0.696473 0.745633 
2478 1 0.464348 -0.52144 0.454098 0.832901 
327 1 -0.150504 -0.248487 0.328627 0.438626 
728 1 -0.0357324 0.0703009 0.152511 0.171694 
817 1 0.166357 -0.0992031 0.23286 0.302886 
233 1 0.033109 -0.00451873 0.154695 0.158263 
2945 1 0.186117 0.398564 -0.111473 0.453783 
3230 1 0.209589 0.0039996 0.00356684 0.209658 
3651 2 0.878727 -0.10667 -0.389517 0.96709 
400 1 -0.0953373 -0.0139175 -0.0950858 0.135367 
677 1 -0.00624719 -0.175368 0.0991927 0.201574 
623 1 0.047986 0.00095753 -0.146778 0.154426 
4053 2 0.245527 -0.106361 -0.287335 0.392629 
594 1 0.115881 0.145473 0.00372024 0.186024 
2939 1 -0.116982 -0.128655 0.305262 0.351314 
727 1 -0.131626 -0.0578749 0.213336 0.257268 
3514 2 0.287289 0.00546693 0.333358 0.440105 
688 1 0.435992 -0.222001 -0.0169518 0.489551 
58 1 0.199899 0.195898 -0.561928 0.627773 
18 1 0.538601 0.499069 -0.154028 0.750257 
87 1 0.40093 0.577194 -0.259933 0.749309 
110 1 0.0222775 -0.21419 -0.169204 0.273868 
190 1 -0.129711 0.119555 -0.272546 0.324654 
2461 1 -0.0220364 0.167948 -0.0312269 0.172241 
106 1 -0.217341 -0.0376662 -0.0526946 0.226788 
217 1 -0.00223435 0.0753255 -0.0836276 0.112572 
775 1 0.0753856 0.14839 -0.153726 0.226571 
3627 2 -0.102979 0.348138 -0.261769 0.44758 
3199 1 0.0470745 0.110092 0.0112243 0.120259 
608 1 0.0241672 0.0162259 0.00701608 0.0299426 
568 1 0.219393 -0.0468624 -0.0123634 0.224682 
3118 1 0.0339121 0.219208 -0.290273 0.365323 
562 1 0.0526463 0.0833455 -0.0969733 0.138282 
70 1 0.0227991 0.126527 0.0820011 0.15249 
121 1 0.144502 0.215125 -0.108604 0.280988 
1118 1 -0.0268423 -0.107917 -0.000778491 0.111208 
4214 2 0.102357 0.150529 0.210886 0.278584 
546 1 -0.0974823 0.216928 -0.0809983 0.25124 
3189 1 -0.262993 0.513384 -0.54593 0.794209 
226 1 0.225622 -0.00326489 0.224563 0.318347 
532 1 0.0906591 0.11383 0.113987 0.18485 
3578 2 -0.0265504 0.00816762 0.0379892 0.0470618 
473 1 0.114699 -0.0207973 -0.0519197 0.127609 
246 1 0.104387 0.198242 0.0845214 0.239458 
4289 2 0.00760589 0.211338 0.0597514 0.219754 
4071 2 0.0408482 0.163644 0.305431 0.348907 
2838 1 0.100265 0.248889 0.0664723 0.276437 
536 1 -0.0253837 -0.114422 0.119848 0.167632 
894 1 -0.186534 0.073506 -0.17398 0.265456 
351 1 -0.0314832 0.110985 -0.0600722 0.130068 
3135 1 0.0650353 0.399477 -0.0791495 0.412403 
4034 2 0.372609 0.557801 0.50051 0.836952 
289 1 0.0127687 -0.171239 0.178823 0.247919 
3478 2 0.12545 0.0576325 0.22797 0.266514 
484 1 0.218664 0.630399 0.336092 0.74711 
1415 1 -0.196804 -0.0125267 0.00570143 0.197285 
527 1 -0.301652 -0.0611812 -0.123966 0.33182 
3002 1 -0.132996 0.222373 -0.120232 0.285646 
712 1 0.0669723 -0.191126 -0.0859708 0.220012 
3469 2 -0.0349133 -0.08434 0.155682 0.180469 
718 1 0.217205 0.0501058 0.243824 0.330361 
180 1 0.0290363 -0.0099721 0.0134275 0.0335089 
4177 2 0.480361 -0.420498 0.435517 0.772813 
93 1 0.0378994 0.263112 -0.106949 0.286535 
569 1 0.154338 0.137093 0.320179 0.380959 
639 1 -0.0607628 0.191565 -0.21715 0.295877 
3353 1 0.274065 -0.216058 -0.0125669 0.349214 
21 1 -0.0209741 0.0608751 -0.13664 0.151051 
167 1 -0.0183532 0.225734 0.0940396 0.245227 
96 1 0.0249132 -0.0851895 -0.112542 0.14333 
823 1 0.0287115 0.0481262 -0.14293 0.153524 
2596 1 -0.0217274 0.145025 -0.0415285 0.15241 
50 1 -0.00763797 -0.0248618 -0.103164 0.106392 
2495 1 0.117019 0.0960498 -0.055075 0.161097 
28 1 -0.130241 0.251122 -0.268362 0.389927 
3055 1 0.0443468 0.0763257 -0.216349 0.233664 
12 1 0.144661 0.112861 -0.180663 0.257494 
738 1 0.0644106 -0.133247 -0.043457 0.154246 
232 1 -0.119126 0.118687 0.098432 0.19485 
65 1 -0.0155258 0.123873 0.0127287 0.12549 
210 1 0.197315 0.0242986 0.235822 0.308441 
4170 2 -0.128952 0.142207 0.139059 0.237042 
2453 1 0.152274 0.087696 0.0867598 0.195973 
3167 1 0.122964 -0.0526494 0.0404166 0.139734 
339 1 -0.013666 0.326321 0.0407934 0.329145 
23 1 0.112938 0.0899917 -0.263435 0.300419 
3679 2 -1.02871 -0.183432 0.190754 1.06221 
118 1 0.169787 0.100344 0.0365896 0.200587 
390 1 0.228608 0.106472 0.13038 0.283896 
203 1 0.00356622 0.109691 0.0137226 0.110603 
3582 2 0.0465798 0.440316 -0.00349867 0.442787 
3632 2 0.127973 0.274242 -0.0365247 0.304828 
231 1 0.100077 0.0969069 0.0668765 0.154528 
323 1 0.0229458 0.200657 0.064232 0.211933 
3244 1 0.130587 0.177162 0.028293 0.221901 
3916 2 -0.381521 -0.239086 -0.584533 0.737834 
3251 1 -0.684279 -0.0110903 -0.491237 0.842422 
155 1 -0.087403 -0.0701855 0.0186863 0.113642 
2735 1 -0.214914 0.147113 -0.161974 0.306702 
2768 1 0.0047172 0.124094 -0.07543 0.145297 
553 1 -0.559287 0.583066 -0.397632 0.900489 
2960 1 -0.186374 -0.0551484 -0.197594 0.277164 
29 1 -0.00697128 0.406796 -0.119564 0.42406 
753 1 0.0389201 -0.0620481 0.00043532 0.0732457 
53 1 0.403368 0.366992 -0.361496 0.654269 
3196 1 0.0149062 -0.408544 -0.545263 0.6815 
437 1 -0.0112776 0.0994983 -0.258446 0.277167 
593 1 -0.164009 0.177378 0.169332 0.295018 
609 1 0.0447207 0.0316702 -0.386419 0.390285 
3040 1 -0.0853818 0.334204 -0.0373175 0.346951 
4228 2 -0.14923 0.149745 -0.172224 0.27268 
3460 2 0.125214 0.110737 -0.0544091 0.175789 
424 1 0.0522681 0.159103 0.00912377 0.167717 
725 1 -0.117286 0.246203 0.0316023 0.274537 
610 1 -0.0364119 0.127687 0.149129 0.199673 
89 1 -0.0932685 0.113651 -0.065872 0.161105 
3149 1 -0.0167025 0.0253469 0.0554212 0.0631898 
550 1 -0.118965 -0.0611699 0.48993 0.507864 
147 1 -0.0887875 0.0458624 -0.0615028 0.117342 
3554 2 -0.0643147 -0.107696 -0.257438 0.286372 
3152 1 0.120717 0.0763983 -0.059735 0.154847 
3786 2 -0.028592 0.116775 -0.200682 0.233938 
5 1 0.0641592 0.254954 -0.072806 0.272798 
2591 1 0.164866 0.0927222 -0.166537 0.252017 
3232 1 -0.0334778 0.222439 0.0763835 0.237559 
1215 1 0.109611 -0.311462 -0.167101 0.370062 
859 1 0.312127 0.0985648 -0.174955 0.371143 
988 1 0.0450666 0.142671 -0.18385 0.237037 
197 1 -0.0513546 1.01201 0.000213188 1.01331 
3023 1 0.0438391 0.468948 -0.233167 0.525548 
59 1 0.0570124 0.0233802 0.0389937 0.0729216 
43 1 0.17507 0.066196 -0.0800664 0.203574 
3743 2 0.0396097 0.109049 -0.0580817 0.129747 
3730 2 0.0294769 0.0698564 -0.195446 0.209638 
151 1 0.0757519 -0.0267446 0.110724 0.136797 
3611 2 -0.103384 0.13987 0.147519 0.228065 
1454 1 -0.134557 -0.0053479 -0.0979569 0.166522 
2936 1 0.163535 0.298018 -0.0731014 0.34771 
3346 1 0.0711778 0.214961 -0.0577493 0.233687 
3006 1 0.13049 0.0153556 0.105622 0.16858 
7 1 0.0274226 -0.48419 -0.0307251 0.485938 
821 1 -0.553139 0.0251047 -0.445622 0.710754 
1133 1 0.0548271 0.0083895 -0.00237699 0.0555162 
261 1 0.174295 -0.00433978 0.032751 0.177399 
3712 2 -0.0433728 0.0574336 -0.0585486 0.092778 
2500 1 0.0465954 0.0494206 -0.146149 0.161162 
3188 1 0.104776 0.524482 -0.0667317 0.538992 
691 1 0.0125697 -0.421604 0.102594 0.43409 
529 1 -0.441687 -0.184793 -0.176127 0.510153 
140 1 -0.246576 -0.0262421 0.076196 0.259411 
825 1 -0.064605 0.320579 -0.338753 0.470849 
174 1 -0.0471793 -0.0926709 -0.37664 0.390732 
559 1 -0.120468 0.0403049 -0.176235 0.217246 
3464 2 -0.217 -0.643355 -0.0720569 0.682779 
2931 1 -0.0543992 0.0360257 -0.0164802 0.0672958 
98 1 0.113407 -0.254704 0.0453611 0.282476 
1480 1 -0.185699 -0.132073 0.198986 0.302527 
2968 1 0.14805 -0.0522666 0.0544771 0.166188 
133 1 0.154807 0.0544088 -0.00285251 0.164115 
3491 2 -0.467273 0.409894 -0.396856 0.737463 
40 1 0.0158069 0.086179 -0.0733766 0.114284 
1331 1 -0.234172 0.0206396 0.0384545 0.238204 
920 1 0.0609286 0.0654077 -0.111289 0.142743 
1130 1 -0.0515331 -0.0291182 -0.0223297 0.0632625 
3041 1 -0.140507 -0.278373 -0.300323 0.43293 
604 1 0.322458 0.215229 -0.229534 0.450542 
721 1 0.048255 0.0336057 -0.481522 0.485099 
4094 2 0.438644 -0.348107 -0.853558 1.02086 
154 1 0.0699183 0.0641074 -0.0745541 0.120651 
3518 2 -0.0644193 0.234868 0.141642 0.281736 
215 1 0.056397 0.0478442 -0.0785157 0.107863 
3608 2 0.0802981 0.101262 0.188446 0.228504 
64 1 0.0697009 -0.160861 -0.317574 0.36275 
193 1 0.100724 0.1479 -0.200048 0.268401 
2996 1 0.108976 -0.0145202 -0.184401 0.214687 
4212 2 -0.0339568 0.182042 -0.182313 0.259866 
44 1 0.17918 0.0508947 -0.050997 0.193123 
3279 1 0.0136943 -0.129905 0.0459504 0.138471 
257 1 0.049436 -0.0468068 -0.0795581 0.10471 
3408 1 -0.156549 0.0399123 0.193168 0.251822 
103 1 -0.051383 0.13925 -0.129653 0.19708 
330 1 -0.0986924 0.231274 -0.0191968 0.252183 
600 1 -0.0747837 -0.0710625 -0.00536956 0.103302 
338 1 -0.128417 -0.106491 -0.00169874 0.166836 
4101 2 -0.0900687 -0.039311 0.0603895 0.115346 
3841 2 -0.0470468 -0.0220175 -0.00240935 0.0519998 
216 1 0.0825272 -0.0358011 0.124384 0.153505 
3010 1 0.0509049 0.211874 -0.144069 0.261223 
249 1 0.0173921 -0.382176 0.566923 0.683932 
254 1 0.135963 0.136763 -0.242378 0.309738 
4217 2 -0.0967155 -0.10858 0.0452876 0.152297 
479 1 -0.0850133 0.0355894 0.151539 0.177364 
3335 1 -0.125095 -0.0801728 0.0340059 0.152423 
1457 1 -0.11874 -0.037488 -0.0021663 0.124536 
3037 1 -0.0116568 0.189605 -1.2929e-05 0.189963 
4253 2 -0.0661981 0.0320892 -0.0656819 0.0986206 
387 1 -0.0178449 0.0252213 0.07648 0.0824848 
3736 2 0.140737 0.353819 0.186326 0.423924 
2926 1 -0.116291 -0.0226172 0.0478657 0.127775 
95 1 -0.217727 -0.16312 0.0634951 0.279365 
3003 1 0.0356387 -0.000768474 -0.126364 0.131296 
497 1 0.14651 -0.147606 0.167115 0.266797 
717 1 0.0853053 -0.0888937 0.245555 0.27473 
3130 1 -0.0284586 0.0881582 -0.419087 0.429204 
508 1 -0.150913 -0.0249848 -0.0669941 0.166994 
3537 2 0.384509 0.154916 -0.21244 0.465807 
747 1 0.059851 0.0148139 0.245153 0.252787 
958 1 0.0988821 -0.285949 0.214286 0.37076 
4163 2 0.0279219 -0.0544367 -0.0989636 0.116348 
4204 2 -0.0789659 -0.0444115 0.00623965 0.0908126 
86 1 0.367304 -0.0368431 -0.0193109 0.369652 
759 1 -0.0256226 -0.122354 -0.129399 0.17992 
3411 1 0.0195689 0.15045 0.23108 0.276434 
835 1 -0.151943 0.277639 0.026717 0.317622 
3057 1 0.648544 0.199079 -0.00973515 0.678481 
241 1 -0.167656 0.0696929 -0.0517551 0.188797 
3620 2 -0.0445424 0.785597 0.157827 0.80253 
3354 1 0.239435 -0.0679372 0.0845119 0.262844 
704 1 0.0205121 0.370577 -0.309578 0.483308 
157 1 -0.00924812 0.108495 -0.135094 0.173514 
54 1 -0.135139 0.0726892 -0.499818 0.522843 
493 1 -0.00180307 0.290492 -0.159233 0.331276 
3599 2 -0.197329 0.162155 -0.121121 0.282672 
2977 1 0.0935459 0.0367831 0.219612 0.241523 
178 1 0.147127 0.0287655 -0.253805 0.294773 
204 1 -0.0803618 -0.0395146 -0.222711 0.240041 
67 1 0.138507 0.123877 -0.0452282 0.191247 
4050 2 0.241354 0.127305 -0.0913662 0.287761 
2988 1 0.0687688 0.112304 -0.325199 0.35085 
3030 1 -0.0991971 0.227206 -0.110662 0.271494 
674 1 0.148755 -0.0470033 -0.232794 0.280233 
540 1 -0.088217 0.171569 -0.176568 0.261524 
3216 1 0.0905021 0.017018 -0.0852024 0.125458 
1036 1 0.165928 0.0356948 -0.0798994 0.18759 
3479 2 0.0481685 0.653281 -0.0338836 0.65593 
234 1 -0.0514815 -0.0669141 0.023888 0.087741 
3369 1 -0.0780453 -0.0402522 0.0314112 0.0932629 
3607 2 0.0122138 -0.091625 -0.0856485 0.126016 
3139 1 -0.0802291 0.0780131 -0.0920471 0.144898 
644 1 -0.0160877 -0.0296914 -0.0425605 0.0543303 
685 1 -0.0109769 0.142762 0.0437628 0.149722 
1278 1 0.037087 0.00439705 -0.14456 0.149307 
4269 2 -0.0267056 0.0946884 0.0919901 0.13469 
214 1 -0.0143052 0.00934887 -0.101527 0.102955 
640 1 0.0359781 0.0608041 0.0869979 0.112072 
199 1 0.0217358 -0.0506628 -0.0460005 0.0717997 
245 1 -0.00436818 -0.0208132 -0.0531535 0.05725 
2758 1 -0.10972 0.161099 0.138113 0.238886 
3056 1 -0.0348812 0.0702837 -0.00544442 0.078652 
3468 2 -0.194487 0.0745977 0.184874 0.278511 
563 1 -0.119346 0.183537 -0.079255 0.232832 
4089 2 0.0536618 0.0778834 0.135414 0.165173 
580 1 -0.00849088 0.00694842 0.32023 0.320418 
446 1 0.149078 0.057273 0.167575 0.231486 
3096 1 -0.043898 0.00574902 0.109426 0.118043 
3211 1 0.0598332 0.0591503 0.0848171 0.119468 
2684 1 -0.213842 0.183748 -0.256567 0.381206 
181 1 -0.0476023 -0.154555 0.0998177 0.190044 
46 1 0.146938 -0.486608 -0.155904 0.531681 
3603 2 0.0264365 -0.592876 0.0773793 0.598489 
3007 1 -0.0753684 0.0437128 0.117977 0.146662 
949 1 -0.0415512 0.0477275 0.00435221 0.0634299 
742 1 0.0621772 -0.135262 -0.241804 0.283956 
312 1 0.694772 0.048852 -0.329624 0.770549 
3512 2 0.0711689 -0.0397734 0.00496264 0.0816796 
1102 1 0.189472 0.367833 -0.698186 0.811581 
240 1 0.110782 0.265133 -0.339259 0.444596 
135 1 -0.00459024 -0.174122 -0.0398536 0.178684 
66 1 0.16451 -0.135363 -0.612698 0.64868 
3701 2 0.0906282 -0.00742621 0.0560995 0.106845 
3513 2 0.00842663 -0.279054 -0.492737 0.566332 
587 1 0.0700542 0.102273 -0.00777716 0.124209 
134 1 0.10104 0.225236 0.11698 0.273176 
1179 1 0.151729 0.162655 0.0134023 0.222841 
195 1 -0.084382 0.13458 -0.122877 0.200826 
3618 2 0.27012 0.18392 -0.305907 0.447627 
1991 1 0.126892 -0.0567016 -0.0642256 0.153106 
2995 1 -0.160653 0.00977803 -0.253805 0.300536 
191 1 0.0745927 0.0955307 -0.0867712 0.149062 
3092 1 -0.0213626 0.0445238 -0.105803 0.11676 
4195 2 -0.247316 -0.0880346 -0.279202 0.383235 
602 1 -0.209057 0.125831 -0.152193 0.287578 
80 1 -0.0856617 -0.100326 -0.0134356 0.132604 
2004 1 -0.200331 -0.0713183 -0.00924794 0.212848 
182 1 0.0313225 -0.0628114 -0.20119 0.213082 
4173 2 0.282279 0.07943 -0.151487 0.330059 
2950 1 -0.0997094 -0.110127 -0.0945129 0.176075 
6 1 -0.201937 0.168207 -0.110579 0.285131 
427 1 0.0452185 0.25956 -0.171034 0.314116 
690 1 0.127885 0.000121559 -0.110558 0.169049 
902 1 0.0720641 0.148327 0.0190086 0.165998 
710 1 0.0191345 -0.0994841 -0.0974361 0.14056 
354 1 0.194224 0.0299348 0.182782 0.268381 
3115 1 -0.218056 0.206904 -0.0122053 0.300843 
78 1 0.132775 0.0572598 0.075251 0.163005 
3164 1 0.0514226 0.239048 -0.157663 0.29094 
551 1 -0.160247 -0.0648 -0.173471 0.244888 
205 1 -0.382309 0.143967 0.178195 0.44569 
694 1 -0.244658 0.181827 0.220709 0.376339 
861 1 -0.237006 -0.0405875 0.172452 0.295904 
3549 2 -0.166382 0.0143813 -0.0382539 0.171328 
3401 1 -0.0375449 0.124744 0.111258 0.171315 
1077 1 -0.0471302 0.0591251 0.0821948 0.111683 
4239 2 0.585692 1.33264 -0.465719 1.52836 
3393 1 0.00189576 0.11483 0.0581297 0.128719 
2479 1 -0.131542 0.118928 -0.0813729 0.195112 
512 1 0.121894 0.0997913 0.141912 0.212027 
300 1 -0.00109729 0.12682 0.0932457 0.157414 
393 1 -0.0657903 0.0224097 0.0173956 0.0716461 
2740 1 0.0835599 0.198567 -0.0173735 0.216132 
286 1 0.017289 -0.0429914 0.191789 0.197307 
4006 2 -0.12503 0.173618 0.132979 0.251911 
3341 1 -0.170965 0.156186 0.02167 0.232578 
4154 2 -0.306135 0.258681 0.0375932 0.402552 
277 1 -0.0704152 -0.0529389 0.088937 0.125182 
364 1 -0.193827 0.0976358 0.139467 0.257978 
1367 1 -0.0413155 0.0484284 0.0630485 0.0895957 
411 1 -0.211529 0.238009 0.111403 0.337348 
353 1 0.0125016 -0.0419296 0.0437981 0.0619084 
3612 2 -0.0958376 0.188082 -0.0459808 0.216042 
3404 1 0.000391528 -0.0140101 0.0418422 0.0441272 
3197 1 -0.100872 0.0618447 0.00223267 0.118342 
160 1 -0.0361425 -0.112642 0.215374 0.245724 
3389 1 -0.0882168 -0.0332768 0.0151051 0.0954867 
357 1 -0.27987 0.0340887 -0.0228916 0.282866 
362 1 -0.0822262 0.062621 0.0981712 0.142549 
478 1 -0.137902 0.184318 0.107509 0.254064 
4159 2 -0.20261 0.236625 -0.0119343 0.311744 
2696 1 0.0492658 0.139518 -0.137257 0.201821 
309 1 -0.030265 0.176624 -0.0432407 0.184341 
966 1 -0.0869398 0.0298425 0.0913109 0.129564 
4257 2 0.815929 0.543689 -0.23942 1.00929 
780 1 -0.232548 0.0957038 -0.369131 0.446649 
924 1 0.312456 -0.203511 0.262683 0.456123 
2710 1 0.0861027 0.342124 -0.488098 0.602247 
3313 1 0.0857302 0.0217273 -0.141036 0.166472 
3588 2 0.197958 -1.06829 -0.899079 1.41024 
3150 1 0.370849 0.769002 -0.675457 1.08864 
306 1 -0.208695 0.0377725 -0.142355 0.255432 
2365 1 -0.153461 0.0696884 -0.252039 0.303201 
2861 1 -1.22151 0.776347 -1.21149 1.88746 
92 1 -0.448301 -0.685865 -0.0598697 0.821565 
3333 1 0.0581078 0.0404185 -0.183967 0.197114 
3249 1 -0.0203724 0.0790415 -0.120706 0.145714 
3379 1 0.179131 -0.0829017 0.205869 0.285206 
903 1 0.129728 -0.660519 0.0104997 0.67322 
3094 1 -0.00433848 -0.0385233 0.0294287 0.0486715 
1449 1 -0.0781685 -0.0111181 0.105203 0.131536 
2961 1 -0.539728 -0.331155 -0.155929 0.652137 
4014 2 -0.0946399 -0.132034 0.195207 0.25396 
3526 2 -0.262674 -0.221963 -0.255944 0.428687 
462 1 -0.0850263 -0.0471977 0.206838 0.228559 
2966 1 0.256032 0.136244 0.170127 0.336241 
750 1 -0.0104175 0.112725 0.04359 0.121307 
3162 1 -0.131232 0.280957 0.13527 0.338315 
3022 1 -0.0957059 0.168825 0.048797 0.200107 
449 1 0.0639672 -0.0223362 -0.00201997 0.0677848 
287 1 -0.024554 -0.0803574 0.0930926 0.125405 
3305 1 0.00159914 0.230732 0.0615573 0.238808 
886 1 0.0866719 0.179153 0.137812 0.242075 
3209 1 -0.0507978 -0.103376 -0.0583652 0.129126 
3409 1 0.00275743 -0.146922 0.121004 0.190357 
3647 2 -0.268772 0.0944665 -0.0194118 0.285551 
2890 1 0.0296301 0.122426 -0.00186216 0.125974 
1285 1 -0.0634975 0.27303 0.243877 0.371555 
943 1 -0.0510638 0.255636 0.00476412 0.26073 
4318 2 -0.156332 0.105728 0.0532427 0.196094 
2732 1 0.0214427 -0.069191 0.0736027 0.103269 
356 1 0.159532 0.0207486 0.117027 0.198938 
3883 2 -0.0120117 0.0738583 -0.0203497 0.0775464 
3227 1 0.0387563 0.037593 0.0944267 0.108774 
373 1 0.0404006 0.294736 0.0775648 0.307438 
4297 2 -0.0131299 0.0807295 -0.0116007 0.0826089 
398 1 0.0950621 -0.025617 0.038823 0.105831 
3531 2 -0.0600523 0.000435773 0.131444 0.144513 
3483 2 -0.0209989 0.0775482 0.076471 0.110917 
3221 1 -0.0397668 0.249484 0.0113887 0.25289 
394 1 0.0244555 0.256648 0.0511197 0.26283 
412 1 -0.0240684 0.135554 0.0250194 0.139929 
836 1 0.00563932 -0.0914872 0.130019 0.159081 
392 1 -0.0845159 0.0844511 -0.0658074 0.136402 
3573 2 -0.114121 0.0538821 -0.0697272 0.144183 
1212 1 -0.199601 0.209093 0.252608 0.38389 
3319 1 0.0371642 -0.418808 -0.0814171 0.428264 
3360 1 -0.0275756 0.0972278 -0.118358 0.155635 
3093 1 -0.427884 0.223863 -0.180125 0.515407 
3097 1 -0.118979 -0.0345976 -0.426881 0.4445 
3324 1 0.200978 -0.246248 0.284255 0.426417 
2745 1 0.00325286 0.222647 0.284142 0.360997 
3234 1 -0.205305 0.181249 0.144981 0.309872 
951 1 0.120817 -0.279769 -0.0671851 0.31206 
228 1 0.181515 -0.34916 0.271726 0.478221 
2737 1 0.00511397 -0.277979 0.0747188 0.287891 
2959 1 0.383702 -0.321434 0.092772 0.509071 
3337 1 0.58807 -0.0993687 0.00425863 0.596422 
4116 2 0.0830614 -0.0345257 -0.0848173 0.123633 
4284 2 -0.0445746 0.7115 0.721826 1.01452 
389 1 0.164594 -0.138311 0.0175374 0.215705 
601 1 -0.0156702 0.204647 0.0580602 0.213301 
3617 2 0.0881184 0.0252758 0.124514 0.154621 
206 1 0.13561 0.0579315 0.150294 0.210558 
71 1 0.204725 0.0286443 0.0323259 0.209231 
716 1 0.214309 0.147515 -0.134349 0.292812 
4185 2 0.156755 -0.018023 -0.0971351 0.18529 
1313 1 0.134707 0.0958203 0.0454401 0.171442 
763 1 0.0848637 0.235366 0.10514 0.271392 
3392 1 0.087974 0.207555 0.167424 0.280801 
1145 1 -0.00906229 0.0551405 0.195729 0.20355 
3561 2 -0.0781929 0.0706144 0.0926491 0.140301 
3676 2 0.158687 0.159041 0.10248 0.246937 
838 1 -0.0654311 0.0767227 0.068864 0.122106 
388 1 0.0385168 0.0705963 0.0826118 0.115291 
3668 2 0.099114 0.186234 -0.109044 0.237481 
460 1 0.0706379 -0.126876 0.105916 0.179737 
499 1 0.117561 0.120259 0.0227554 0.169707 
444 1 0.105391 0.205368 0.0150606 0.231323 
1324 1 0.0183683 0.00829328 0.0649985 0.0680513 
3548 2 -0.0711766 0.21946 0.100768 0.25176 
3095 1 -0.0315123 0.332807 -0.026066 0.33531 
614 1 -0.0348149 0.403762 0.370412 0.549036 
635 1 -0.230086 0.0383357 0.00631457 0.233343 
2873 1 0.203255 -0.527173 0.469578 0.734661 
482 1 0.0030986 -0.00617343 -0.131454 0.131635 
291 1 0.0443911 0.064918 0.0150894 0.0800787 
1314 1 0.040678 7.54327e-05 0.0455652 0.061081 
3672 2 0.00655205 0.0756525 0.0230175 0.0793476 
375 1 0.0951916 0.112205 -0.0637456 0.160359 
94 1 -0.100623 0.245036 -0.0166533 0.265414 
37 1 0.037837 -0.135787 -0.0197819 0.142341 
4309 2 -0.191404 0.0938966 -0.0282146 0.215054 
3281 1 -0.051471 0.0299794 0.144859 0.156628 
100 1 0.0400048 0.112486 -0.00551098 0.119515 
3808 2 0.136038 0.0503216 0.166463 0.220791 
221 1 -0.0374171 0.279531 -0.0220065 0.282882 
901 1 -0.147782 0.00435263 -0.0282819 0.150526 
436 1 0.0323762 -0.0913574 -0.0084395 0.0972915 
792 1 -0.134708 -0.125889 -0.00665696 0.184496 
3293 1 -0.289694 0.361452 0.135533 0.482637 
3314 1 -0.211612 -0.181275 0.0195093 0.279322 
3180 1 -0.613371 -0.205479 0.101579 0.6548 
3546 2 -0.705838 -0.454684 -0.437478 0.946748 
355 1 -0.936011 -0.220122 0.2983 1.00675 
318 1 -0.312684 0.335334 -0.288669 0.541803 
490 1 0.249666 -0.163563 -0.438044 0.530064 
3303 1 -0.00765403 0.148415 0.2489 0.289891 
1354 1 -0.16818 -0.384998 0.0682117 0.42563 
3785 2 -0.298446 0.0136417 -0.0890031 0.311733 
3301 1 0.00611847 0.125396 -0.0616088 0.139847 
3380 1 0.0507658 -0.019646 -0.0371638 0.0659112 
3678 2 -0.14254 0.166553 0.29006 0.363583 
3434 1 -0.101154 -0.0367733 0.098221 0.145711 
3482 2 -0.225682 -0.244983 -0.0947074 0.346293 
626 1 0.123062 -0.00819761 0.235063 0.265454 
3658 2 0.0475983 0.214908 0.255784 0.337456 
483 1 -0.0635412 -0.0319711 0.139327 0.156434 
4271 2 0.0279281 0.127193 0.185366 0.226537 
1172 1 0.0624888 -0.0198172 0.0769568 0.101094 
652 1 0.0167361 -0.0839897 -0.0109622 0.0863397 
3568 2 -0.0019689 -0.0993967 0.0738665 0.123854 
3560 2 0.0655597 0.0390272 0.101451 0.126939 
3419 1 -0.111181 0.00891143 0.132285 0.173032 
187 1 -0.123333 0.0816463 0.35469 0.384295 
3433 1 0.068326 0.0124521 -0.0511193 0.0862362 
248 1 0.0286772 0.0401914 0.180175 0.186818 
3082 1 0.0456168 0.0879933 0.0949893 0.137283 
781 1 -0.0208208 -0.182211 -0.0507375 0.190286 
471 1 -0.120357 0.433224 -0.200051 0.492128 
325 1 -0.117103 0.109683 0.137255 0.211145 
292 1 0.0773235 0.0438982 0.214174 0.231897 
3444 1 0.0316044 0.0418959 0.0158262 0.054814 
908 1 0.0757308 -0.201303 -0.0137235 0.215514 
3504 2 0.142884 0.0529745 0.0151703 0.153142 
502 1 -0.00957439 0.0152307 0.0564818 0.0592776 
423 1 0.0867341 0.042543 0.0944269 0.135089 
3435 1 -0.093971 -0.0215519 0.0439278 0.105947 
1409 1 0.143357 -0.0971896 -0.0688537 0.186381 
4182 2 -0.123199 -0.0304692 -0.0842491 0.152329 
3331 1 -0.0910248 0.0432797 -0.0143479 0.101806 
874 1 -0.0320036 -0.256734 0.109252 0.280843 
980 1 -0.107547 -0.0716414 0.250487 0.281856 
225 1 -0.24447 -0.185542 0.262502 0.403855 
810 1 0.0323001 -0.120301 0.0447804 0.132366 
4307 2 -0.140036 -0.141886 -0.110673 0.228014 
4280 2 0.166517 0.600094 -0.36484 0.721768 
416 1 -0.0925436 -0.0519742 0.14174 0.177076 
365 1 0.0738591 -0.204956 -0.108186 0.243241 
3799 2 -0.149389 -0.10467 -0.0659584 0.193968 
2819 1 -0.090042 -0.108179 -0.0166085 0.141725 
382 1 -0.245845 0.297105 -0.446349 0.589863 
295 1 -0.00692867 -0.218176 -0.307771 0.377322 
2776 1 -0.218061 -0.0197346 0.0853193 0.234988 
819 1 -0.110562 -0.0861737 0.0567357 0.151224 
957 1 0.240805 -0.0140072 -0.238117 0.338944 
2973 1 -0.186597 0.327956 -0.0894972 0.387793 
4256 2 -0.48198 -0.563519 -0.171353 0.761065 
3291 1 0.0320131 -0.294831 -0.0710399 0.304954 
3070 1 0.0891499 -0.0374427 -0.172216 0.197504 
307 1 -0.162097 -0.0673656 -0.046986 0.181717 
699 1 0.0138469 0.189607 0.188605 0.267796 
1442 1 0.0229405 -0.229346 0.031689 0.232659 
783 1 -0.502544 -0.0257632 0.263519 0.568029 
1337 1 -0.142675 0.00562935 -0.021021 0.144325 
496 1 -0.067237 0.0560834 0.00951432 0.0880721 
2993 1 -0.481787 0.288938 -0.16828 0.586449 
517 1 0.1239 0.0467577 -0.111022 0.17281 
279 1 0.0234134 0.324193 -0.0553977 0.329724 
4285 2 0.0521485 -0.199123 0.0123399 0.206208 
275 1 0.104076 0.0842068 0.0479145 0.142191 
917 1 -0.117606 -0.0910796 0.0866466 0.172146 
4264 2 0.276112 -0.0287836 0.182688 0.332327 
3322 1 -0.147068 0.193825 0.117093 0.270014 
3863 2 -0.270846 -0.1609 0.0867125 0.32675 
274 1 -0.104846 -0.11933 0.0482825 0.166023 
1091 1 -0.0583398 0.0808423 0.10507 0.14484 
3396 1 -0.0399547 0.0134924 0.268431 0.271723 
439 1 -0.00971299 0.184354 -0.0194578 0.185633 
486 1 0.0171021 0.190568 -0.504371 0.539443 
3643 2 0.0446703 -0.199787 -0.0714693 0.216837 
2545 1 -0.151378 -0.0313857 0.0608906 0.166157 
3327 1 -0.0711425 -0.105461 0.100414 0.162069 
3674 2 -0.0100922 0.0683079 0.168155 0.18178 
1418 1 0.101481 0.18284 0.0113815 0.209423 
443 1 -0.211008 -0.0176642 0.017887 0.2125 
855 1 -0.099816 0.0397798 -0.112246 0.155386 
3476 2 -0.158162 0.0901413 -0.0245746 0.183697 
2869 1 -0.235481 -0.147385 0.0811467 0.289411 
177 1 -0.137092 0.100509 -0.0777539 0.186928 
363 1 -0.0671639 -0.204384 -0.0678935 0.225596 
1450 1 -0.113185 0.0687973 0.189857 0.231494 
3559 2 -0.0240653 0.0276574 0.0116044 0.0384543 
319 1 -0.3114 -0.0642961 0.0483581 0.321625 
347 1 -0.0450344 -0.087956 -0.0819307 0.128363 
4237 2 -0.0640956 -0.122974 0.0666422 0.153857 
4028 2 -0.379338 0.226363 0.239761 0.502616 
830 1 -0.0148719 -0.021254 -0.0280075 0.038175 
937 1 -0.0333827 -0.0674066 0.0590715 0.0956426 
854 1 -0.117704 0.0137733 -0.115843 0.165721 
442 1 -0.254261 -0.247634 -0.0944758 0.367283 
268 1 0.0644955 -0.00918926 -0.0864521 0.10825 
501 1 0.160588 -0.146724 0.227078 0.314453 
314 1 -0.103902 -0.0758046 0.0533217 0.139231 
2656 1 0.0318671 0.0799974 -0.154812 0.177149 
208 1 0.0712036 -0.119439 -0.168145 0.218193 
647 1 0.230459 0.156652 0.124694 0.305286 
474 1 -0.308805 -0.103114 -0.696841 0.769143 
964 1 0.0385005 -0.0601248 -0.445696 0.451378 
793 1 0.199234 -0.0858092 -0.24625 0.328171 
3397 1 -0.0179773 -0.184526 -0.454774 0.491114 
419 1 0.61761 -0.191834 0.0493677 0.648598 
757 1 0.124832 -0.0875549 -0.122351 0.195496 
899 1 0.171053 -0.160337 -0.187894 0.300452 
3383 1 0.0148941 0.12814 0.139667 0.190128 
3544 2 0.0227088 0.386584 0.0549673 0.391132 
1430 1 0.0154338 -0.0582684 -0.05352 0.0806089 
3200 1 0.131942 0.10008 -0.0271937 0.167822 
822 1 0.197465 -0.0340501 0.116532 0.2318 
771 1 -0.121965 0.249314 0.331138 0.432071 
85 1 0.265187 0.0659123 0.306407 0.410553 
329 1 -0.217128 0.167972 -0.00842888 0.274646 
3371 1 0.131076 -0.0282481 -0.463962 0.482949 
3240 1 -0.29195 0.00407065 0.174956 0.340383 
113 1 0.136786 0.153351 0.164505 0.263228 
504 1 -0.0694445 0.0939177 0.340732 0.360196 
3266 1 0.26641 0.135783 -0.137814 0.329248 
875 1 0.0437997 -0.0251117 0.0299699 0.0587129 
2795 1 -0.105606 0.0932575 0.219451 0.260784 
491 1 -0.103955 0.0447963 0.035808 0.118725 
3545 2 0.0967313 0.051965 -0.045401 0.118822 
581 1 -0.129207 0.0503075 0.0528925 0.148401 
3541 2 0.0816228 0.0943725 0.0723167 0.144216 
786 1 0.0587377 0.0130582 0.0821425 0.101823 
800 1 0.0206311 -0.112124 -0.00148456 0.114016 
367 1 0.13025 -0.0767632 0.0472229 0.158391 
2687 1 0.0222739 -0.0662848 0.0237028 0.0738351 
402 1 0.201864 -0.0278465 0.00373346 0.20381 
3378 1 0.311771 0.151524 -0.0332265 0.348231 
3535 2 0.0315528 0.0675975 0.0629352 0.0976004 
795 1 0.34676 -0.334125 -0.0344622 0.482773 
2814 1 -0.0398451 0.181982 -0.00315903 0.186319 
1723 1 -0.0574616 -0.0415101 0.0138692 0.0722308 
3264 1 0.0316367 -0.203439 0.195276 0.283763 
440 1 -0.0931323 -0.0286014 0.139036 0.169772 
308 1 -0.175816 -0.224255 -0.249426 0.378701 
4098 2 -0.0670573 -0.220933 0.347813 0.417471 
431 1 0.0239012 0.0557312 0.130734 0.144114 
801 1 -0.188423 -0.253389 0.0597505 0.321371 
968 1 0.126004 -0.0786795 0.102846 0.180679 
421 1 -0.324787 -0.0354184 -0.179985 0.373009 
4152 2 -0.203896 0.351406 -0.339154 0.529231 
1304 1 0.146339 0.00956851 0.158902 0.216232 
4143 2 0.0756078 -0.11285 -0.0274298 0.138579 
2884 1 -0.0815367 -0.134561 -0.175635 0.235802 
3339 1 -0.119752 0.0647033 0.0340996 0.14032 
3436 1 0.0613195 -0.048552 0.152247 0.171162 
840 1 -0.13141 -0.110091 -0.457195 0.488279 
3192 1 0.0844289 -0.217899 -0.672863 0.712287 
461 1 -0.0379671 0.189305 -0.352282 0.401722 
654 1 0.0300471 -0.00863926 0.177817 0.180544 
107 1 -0.0303215 0.112114 0.00606707 0.116301 
3278 1 0.149691 -0.0793223 -0.24287 0.296117 
4298 2 -0.0400091 0.0883912 0.137551 0.168327 
1254 1 0.00394447 -0.0399812 -0.116819 0.123534 
128 1 0.0141491 0.0813667 0.0917442 0.123441 
907 1 -0.0636833 0.033422 0.116738 0.137114 
1641 1 0.0799656 -0.0138654 0.0221692 0.0841322 
1544 1 -0.0836531 0.0612717 0.0400484 0.111157 
891 1 -0.0587423 -0.0186558 0.102234 0.119375 
737 1 0.256322 0.0544295 -0.503885 0.567947 
3173 1 0.0355169 0.0364145 0.141607 0.150466 
1535 1 0.0875254 -0.0805124 0.10422 0.158129 
573 1 -0.0650383 -0.0207821 -0.0199332 0.0711281 
3844 2 0.0916742 -0.12821 -0.0390216 0.162372 
631 1 0.217051 0.165716 -0.0375544 0.27565 
3600 2 0.142047 0.121593 -0.0614764 0.196829 
1474 1 -0.0787686 -0.044479 0.180374 0.201786 
298 1 0.205892 -0.00575236 -0.0848434 0.222762 
797 1 -0.167422 0.179452 0.0193074 0.246182 
1569 1 -0.0213261 -0.0886278 -0.219475 0.237653 
63 1 0.105576 0.148628 0.0578386 0.191264 
577 1 0.0150505 -0.00023814 0.179541 0.18017 
565 1 0.120154 0.0282278 0.173088 0.212587 
3616 2 0.224962 0.137356 0.000498488 0.26358 
3418 1 0.00434464 -0.00835079 0.00496923 0.0106445 
4176 2 0.00757046 0.0251829 -0.0634106 0.0686469 
69 1 0.0255406 0.0318025 0.187317 0.191706 
683 1 -0.0140288 -0.26857 -0.0190258 0.269609 
3532 2 0.114085 -0.00457477 0.137551 0.178765 
4319 2 0.0696664 0.0655528 0.0357387 0.102117 
655 1 -0.1125 -0.0343069 0.182763 0.217338 
1053 1 0.0645023 -0.0324526 -0.110317 0.131847 
621 1 -0.0667694 -0.00174775 -0.275705 0.283681 
3615 2 -0.0316574 0.104188 0.0857992 0.138632 
172 1 -0.162995 -0.00641398 0.0296988 0.165802 
3503 2 0.0107264 0.0487593 0.0533586 0.073073 
740 1 0.125886 0.0103432 -0.200183 0.236701 
3572 2 0.08541 -0.0977302 0.0187507 0.13114 
617 1 0.0372812 -0.0258929 -0.241474 0.245703 
1083 1 0.0557962 0.104508 0.00781634 0.118728 
401 1 -0.264153 0.205541 0.0731754 0.342605 
397 1 -0.229713 0.197422 -0.0960185 0.317747 
345 1 0.0528385 0.0540476 0.00394242 0.0756875 
1093 1 -0.159894 -0.0102238 0.306905 0.34621 