ITEM: TIMESTEP
40
ITEM: NUMBER OF ATOMS
4320
ITEM: BOX BOUNDS pp pp pp
0.0000000000000000e+00 1.9309999999999999e+01
0.0000000000000000e+00 1.9309999999999999e+01
0.0000000000000000e+00 9.6549999999999994e+00
ITEM: ATOMS id type c_displacement[1] c_displacement[2] c_displacement[3] c_displacement[4] 
3196 1 0.00862042 -0.0610054 0.0345186 0.0706222 
381 1 0.0112202 0.0569157 -0.0345989 0.0675453 
327 1 -0.000526913 0.00995767 -0.0629365 0.0637216 
484 1 -0.00359373 0.0585291 0.0364945 0.0690682 
728 1 -0.012584 0.134637 -0.130591 0.187988 
817 1 0.142365 0.00111735 0.0488133 0.150505 
3586 2 0.0733657 -0.0394311 0.0327421 0.0894952 
3460 2 0.0651562 0.115468 -0.0274463 0.135394 
3679 2 -0.0331655 0.0057713 0.126936 0.131324 
2945 1 -0.0346389 -0.00686047 -0.116365 0.121604 
3230 1 0.0402147 0.0508173 -0.0536731 0.0841452 
3651 2 0.0129176 -0.0213902 0.0376913 0.0452221 
66 1 0.111963 0.105544 -0.0111527 0.154272 
400 1 -0.0443493 -0.0259406 -0.0646845 0.0826066 
677 1 0.0206744 0.0267324 0.0865262 0.0928916 
623 1 0.0307947 0.0577865 0.0363028 0.0748698 
87 1 0.0749295 0.0170208 -0.030113 0.0825284 
3006 1 0.0721472 -0.0431269 0.116329 0.143519 
3877 2 0.0747287 0.0585712 -0.0508503 0.107707 
727 1 0.0808879 0.0237306 -0.0279202 0.0888005 
688 1 0.045745 -0.010358 0.0180212 0.0502459 
58 1 0.0811446 -0.0390113 -0.0540584 0.105017 
3514 2 -0.0518652 -0.0174358 -0.0178862 0.0575667 
18 1 0.0774382 -0.0399981 -0.0388326 0.0954174 
3618 2 -0.0327577 0.0185154 0.0792972 0.087772 
190 1 0.0750081 0.0705295 -0.0910569 0.137448 
298 1 -0.0362153 -0.114981 -0.0490823 0.130159 
559 1 0.0553606 0.020872 -0.0245129 0.0640415 
7 1 -0.0563124 -0.00193287 -0.0502932 0.0755263 
180 1 0.0723593 0.0231519 0.0199638 0.0785521 
106 1 -0.0382341 0.0426047 -0.06582 0.0872311 
217 1 -0.0243179 0.0165559 0.0390034 0.0488542 
775 1 -0.0799462 -0.0412703 -0.096454 0.131902 
3627 2 0.056619 0.0203042 -0.00772211 0.0606433 
608 1 0.170002 0.0386483 0.0398808 0.178843 
3118 1 -0.0447689 0.027818 -0.0498189 0.0725259 
562 1 -0.0948463 0.00963074 -0.0364353 0.102059 
70 1 -0.00603684 -0.0115897 0.0702466 0.0714517 
121 1 -0.0106514 -0.0493329 0.0317367 0.0596188 
1118 1 -0.00347776 0.0353081 0.0669705 0.0757878 
210 1 0.00539087 0.00222288 0.0975952 0.0977693 
232 1 0.00851772 0.0137663 -0.0700755 0.0719211 
4214 2 -0.0240609 0.114679 0.0353473 0.122392 
3712 2 -0.0280922 -0.0290421 -0.0324277 0.051809 
65 1 -0.0638977 -0.0649074 -0.0509924 0.104384 
226 1 0.0305241 -0.0518229 0.0600134 0.0849643 
532 1 0.0393082 0.0146231 0.0997039 0.108166 
3578 2 -0.0276211 -0.0511333 -0.060942 0.0842109 
473 1 0.0650253 -0.0577896 -0.0309439 0.0923334 
246 1 0.0541215 -0.00783422 0.0337195 0.0642458 
221 1 -0.0411933 -0.0281971 0.0240032 0.0553906 
4034 2 0.0243661 -0.0431692 0.0422895 0.0651589 
4071 2 0.0694595 -0.0746193 0.0490511 0.113131 
2838 1 0.053259 0.0645393 0.0370688 0.0915201 
536 1 0.0471734 0.0880096 0.116455 0.153404 
894 1 0.0719415 -0.058673 0.0257107 0.0963283 
289 1 -0.0482163 -0.0200034 0.0373077 0.0641623 
351 1 0.0860485 0.0498926 0.0261254 0.10284 
197 1 0.0085501 -0.0401224 -0.0698935 0.0810433 
3135 1 -0.116447 0.00612832 0.011947 0.117219 
303 1 -0.03333 0.0294336 0.0384462 0.0587821 
1415 1 0.0588215 -0.0877963 -0.0113799 0.10629 
527 1 0.0284481 0.00372252 -0.0136895 0.0317892 
3002 1 -0.0364586 0.0599933 0.0945211 0.11774 
3189 1 -0.0155101 -0.142706 -0.0159632 0.144431 
712 1 -0.0334925 -0.0660675 0.0179987 0.0762274 
718 1 0.0610756 -0.0661691 0.0459782 0.101107 
3469 2 0.0427699 -0.0438978 0.0203126 0.0645669 
110 1 0.0352171 -0.0428487 -0.032087 0.0640768 
4177 2 -0.0770508 -0.052133 0.0725874 0.117998 
93 1 -0.0107942 -0.0571264 0.0561655 0.0808363 
569 1 0.0282955 -0.0315284 -0.0978012 0.106582 
639 1 0.000814835 -0.056041 0.0289096 0.0630636 
21 1 0.0027532 -0.0869452 0.0764587 0.115814 
96 1 0.0355779 0.0688507 -0.0501088 0.0922882 
167 1 0.042459 0.0313058 0.0182384 0.0558163 
1178 1 0.0370469 0.0503228 -0.0898458 0.10944 
3353 1 -0.00306595 -0.108663 0.00389055 0.108776 
823 1 0.0410127 0.00425684 -0.0402114 0.0575944 
2596 1 -0.00410275 -0.0575864 0.0140788 0.0594243 
50 1 -0.0208283 -0.0817605 0.023224 0.0875098 
2495 1 0.0900246 -0.0239633 0.0264693 0.0968467 
28 1 -0.0617508 0.0911306 0.0617794 0.126233 
3055 1 0.0645908 0.068621 -0.0189514 0.0961247 
12 1 0.0980454 0.04831 -0.017818 0.110744 
3835 2 -0.00864216 -0.0938361 0.0584441 0.110886 
4170 2 0.0135223 -0.0298933 -0.0504459 0.0601768 
738 1 -0.0096989 -0.0422659 -0.0249369 0.0500233 
2453 1 -0.0242781 0.0798415 0.0457084 0.0951491 
3167 1 0.0662754 -0.0844285 -0.0378217 0.113803 
339 1 0.06849 -0.0538857 0.0184611 0.0890807 
390 1 0.0104777 -0.0121114 0.059305 0.0614292 
203 1 0.0273191 -0.00193578 -0.0149368 0.031196 
3582 2 -0.0304926 0.0351141 -0.104558 0.114434 
3632 2 -0.0151273 -0.0527731 0.0323962 0.0637444 
231 1 0.018448 0.0167534 0.0409587 0.047944 
323 1 -0.0264794 -0.0379974 0.0127983 0.0480495 
3244 1 0.00254258 -0.0135651 -0.0626496 0.0641517 
118 1 0.0935861 0.00623122 0.0286971 0.0980852 
553 1 0.0120922 -0.0685154 -0.00128198 0.0695861 
2735 1 -0.054495 -0.0426981 -0.119004 0.137676 
2768 1 -0.0277997 0.10356 0.0759531 0.131402 
2960 1 0.0060763 0.0252196 0.00733534 0.0269585 
29 1 -0.0451377 -0.0390149 0.119326 0.133411 
753 1 0.00852301 -0.0338839 -0.0195849 0.0400541 
3467 2 0.000176773 0.0188131 0.0180541 0.0260752 
3916 2 -0.0877172 0.0294126 0.0227013 0.0952615 
3251 1 0.0134737 -0.0329027 0.0176267 0.0396841 
73 1 -0.0969191 0.0692235 0.0247367 0.121643 
725 1 -0.0615807 0.0726031 0.052379 0.10866 
1133 1 -0.0502235 0.0215381 -0.0464488 0.0717202 
546 1 -0.113886 0.00984679 -0.013659 0.115124 
4187 2 -0.054364 0.00112851 0.0415704 0.0684457 
437 1 -0.122769 -0.0104469 -0.0116088 0.123758 
53 1 -0.00401345 0.00814348 -0.0742705 0.0748233 
593 1 -0.0956845 -0.00168858 -0.00279748 0.0957403 
609 1 -0.0017293 0.0491783 -0.113104 0.123345 
3040 1 0.0373845 0.00519199 -0.0467654 0.0600963 
737 1 0.0777538 0.0853559 -0.00309091 0.115503 
233 1 -0.0353667 0.0225726 0.0655125 0.0777959 
610 1 -0.0877205 -0.0498358 0.0309291 0.105523 
247 1 0.046999 0.0610221 0.034742 0.0844962 
89 1 -0.0251008 -0.0682171 -0.0552947 0.0913297 
3149 1 -0.0885208 -0.0298475 0.0903319 0.129949 
550 1 0.0325748 -0.0248084 -0.0849827 0.0943325 
147 1 -0.0213455 -0.0764528 0.136123 0.157576 
3554 2 -0.118328 -0.0306904 -0.0436306 0.129796 
3786 2 -0.0779343 -0.0321039 0.0161423 0.0858196 
5 1 0.0528337 0.0236825 -0.0684875 0.0896817 
2591 1 0.0181804 0.125668 0.0622164 0.141399 
3232 1 -0.0521998 0.0481813 -0.0234087 0.0747945 
1215 1 0.0255405 0.0342078 0.0322465 0.0535007 
859 1 0.0436922 -0.0067413 0.0422149 0.0611273 
3152 1 0.0494449 -0.0572196 -0.0361418 0.0838159 
2936 1 -0.0480101 -0.121593 -0.0595736 0.143662 
59 1 0.000855287 -0.038668 -0.0013722 0.0387018 
2461 1 -0.0878249 -0.0516574 -0.0998678 0.142672 
988 1 -0.0196404 0.077694 -0.148806 0.169013 
23 1 0.0095517 -0.0372919 -0.0106547 0.0399431 
3743 2 -0.0131626 0.0232673 0.0171768 0.0317752 
3023 1 -0.0592283 0.0516658 -0.0654576 0.102284 
151 1 0.0666864 -0.0696614 0.0930266 0.133992 
43 1 0.0724631 -0.0344461 -0.125446 0.148909 
3730 2 -0.0393246 -0.00229318 0.0124699 0.0413181 
1454 1 -0.0596025 0.0279615 0.00803053 0.0663234 
424 1 0.0376378 -0.0478534 0.0132435 0.0623052 
3478 2 0.0413795 -0.0237767 -0.0296861 0.0562037 
3611 2 0.0722426 -0.00504478 -0.0505566 0.08832 
3346 1 -0.046145 -0.0429192 -0.00801845 0.0635272 
3199 1 -0.0261285 0.0404178 -0.0712854 0.0860111 
4289 2 0.00160206 0.0291319 -0.0831441 0.0881145 
215 1 0.026854 -0.0359097 0.0248689 0.0512748 
2500 1 -0.0447591 -0.0724185 -0.0612895 0.104901 
3188 1 -0.0818347 0.141057 -0.0148149 0.163748 
3491 2 -0.021366 0.0846682 0.047497 0.0994041 
717 1 -0.0753588 0.0154752 0.0544386 0.0942443 
2931 1 -0.0773338 0.00711588 -0.0366008 0.0858532 
691 1 0.0148317 0.0372658 0.00997594 0.0413308 
825 1 0.0516897 -0.025665 0.106787 0.121384 
3634 2 0.0843727 0.0692143 0.0565659 0.122919 
140 1 0.00256195 -0.0184278 0.063619 0.0662837 
174 1 0.0116369 -0.0712076 -0.106227 0.128414 
3493 2 0.0828046 -0.0158197 0.0940457 0.126299 
529 1 0.0964682 -0.0214345 -0.013787 0.0997779 
1480 1 0.0497266 -0.00836598 -0.00841603 0.0511229 
2968 1 0.00744431 -0.0967789 0.0218542 0.0994946 
3464 2 0.054851 0.0109807 -0.0385392 0.0679299 
98 1 -0.0725741 -0.0512629 0.0151012 0.0901273 
216 1 0.097365 -0.0212281 -0.000311815 0.0996528 
40 1 0.0852918 -0.0865773 -0.0309222 0.125405 
4228 2 -0.0529061 -0.018427 -0.00153026 0.0560443 
1130 1 0.0667863 0.0466756 0.000998607 0.0814864 
2994 1 -0.0451272 -0.0721615 0.0303253 0.0903513 
3041 1 -0.070564 0.0655463 0.000375897 0.0963107 
604 1 0.0418684 0.0442537 -0.0306411 0.0681926 
721 1 0.0389823 0.0183648 0.0341001 0.0549518 
3164 1 0.025324 0.0431448 -0.0288885 0.0577695 
241 1 -0.0278111 0.039526 0.0174899 0.0513971 
2494 1 0.00419504 0.0550611 -0.0201869 0.0587948 
3010 1 0.0676746 -0.0528396 0.0852056 0.120962 
64 1 -0.0158024 -0.0759732 -0.0165018 0.0793344 
193 1 -0.027178 -0.0423397 0.0661479 0.0831074 
44 1 -0.0107257 0.0090692 0.0163301 0.0215399 
2996 1 0.113806 0.0172765 0.0929266 0.147938 
4212 2 0.0525672 -0.00813451 0.0174008 0.0559667 
3279 1 0.0647176 -0.0149473 -0.0561826 0.0869958 
257 1 0.0357166 -0.0318633 0.0309291 0.0569873 
330 1 0.044346 0.138385 -0.000662166 0.145318 
2981 1 -0.0177729 -0.0985325 -0.0216274 0.102432 
103 1 0.00872856 0.0108451 -0.0488809 0.0508247 
3841 2 -0.0310763 -0.0265317 0.011668 0.0424948 
600 1 -0.0538604 -0.0505758 -0.0179016 0.0760218 
338 1 -0.0344508 -0.0568477 -0.0331211 0.0742666 
4101 2 0.035719 -0.0296202 0.0949166 0.105652 
949 1 -0.00152416 0.00883591 0.0520684 0.0528348 
446 1 -0.0426043 -0.0592977 0.128114 0.14746 
3608 2 0.0814882 0.00205515 0.0578656 0.0999648 
4217 2 -0.0158063 -0.040271 -0.0459803 0.063133 
479 1 0.0524088 0.0193547 -0.0169787 0.0583915 
3335 1 0.0281989 -0.0294887 -0.0174189 0.0443642 
1457 1 -0.115733 0.0699074 -0.0450043 0.142501 
3037 1 -0.156113 0.0852679 -0.0360426 0.181496 
4253 2 0.0652736 0.0131726 -0.0908015 0.112601 
387 1 -0.0580017 -0.0857538 0.012524 0.104282 
3736 2 -0.00760069 -0.0615535 -0.0521265 0.0810172 
78 1 0.0574593 0.000506567 -0.0426311 0.0715488 
3394 1 -0.0140841 0.0127481 -0.060356 0.063275 
508 1 -0.0509274 -0.0154305 -0.0317594 0.0619706 
3537 2 0.0166946 -0.0742789 -0.101134 0.126587 
747 1 -0.0189212 0.059523 -0.00755231 0.062913 
497 1 0.00481157 -0.00749713 -0.00400073 0.00976545 
958 1 -0.0159411 0.0153164 -0.0181045 0.0285742 
3130 1 -0.0547028 0.0254246 -0.0808734 0.100893 
4163 2 -0.0206918 0.139213 -0.023423 0.142678 
3643 2 -0.0514772 0.00685111 0.0260432 0.0580955 
133 1 -0.000240053 -0.00109735 0.03289 0.0329092 
4204 2 -0.030885 -0.047659 0.0138602 0.0584583 
86 1 0.00493963 -0.0360755 -0.0807324 0.0885639 
759 1 -0.00732002 -0.0817793 0.0142171 0.0833281 
3411 1 0.0744915 0.0113448 0.0401649 0.0853869 
835 1 -0.0107219 0.138694 0.0699068 0.155685 
3057 1 -0.00185117 -0.0221871 -0.0347717 0.0412889 
3620 2 0.0103762 -0.0452848 0.03221 0.0565319 
704 1 -0.00870138 -0.00484149 -0.0789887 0.0796139 
3599 2 -0.0364116 0.0211775 0.00253687 0.0421986 
157 1 -0.0494999 0.0883028 0.0220698 0.103608 
54 1 0.00253719 -0.204009 -0.033039 0.206683 
493 1 0.00327381 0.114123 0.000776899 0.114173 
204 1 -0.0638889 0.0151865 0.034199 0.0740405 
254 1 0.0483593 0.00124284 0.0409942 0.0634089 
178 1 0.0955568 0.0451335 -0.0951061 0.142174 
580 1 0.00869788 -0.0774759 0.115343 0.13922 
67 1 -0.00492238 -0.0546849 -0.0611795 0.0822046 
2988 1 0.0496682 0.0310468 0.0114176 0.0596757 
3030 1 -0.00814905 -0.0122662 0.140196 0.140967 
4050 2 0.0369806 0.0652822 -0.0323885 0.0817211 
3479 2 0.0473663 -0.0304926 -0.0358526 0.0667741 
2934 1 0.0305286 0.047481 -0.0697459 0.089727 
3216 1 -0.0387247 -0.00184113 0.0033105 0.0389095 
234 1 0.043119 -0.0727404 -0.0291133 0.0894315 
1036 1 0.046065 -0.106773 -0.0294177 0.119949 
3369 1 0.00501803 -0.0318801 0.0288345 0.0432776 
3607 2 -0.0755379 0.0180451 -0.0328278 0.0843165 
3139 1 0.0375285 -0.00450759 -0.00336203 0.0379475 
644 1 -0.118698 -0.107918 -0.0292806 0.163073 
1278 1 0.00750065 0.0375488 -0.0712017 0.0808447 
4269 2 0.0223895 0.13517 0.00784669 0.137236 
3007 1 0.0184859 -0.0417408 0.0419802 0.062019 
4089 2 0.0301671 0.0268484 0.00439418 0.0406226 
214 1 0.0200848 -0.0299682 0.073592 0.081959 
640 1 0.0456633 0.027264 0.0120263 0.0545261 
199 1 -0.0395751 -0.102122 -0.0732442 0.131756 
245 1 0.030195 -0.00217288 0.125857 0.129447 
2758 1 -0.119254 -0.058315 -0.0784029 0.154173 
3056 1 -0.0457814 -0.0565278 -0.00548356 0.0729479 
3468 2 -0.0840039 0.125236 -0.00286134 0.150827 
563 1 -0.0548902 0.110214 0.042715 0.130325 
3644 2 -0.00990545 0.0208035 -0.0506897 0.0556808 
1149 1 0.0166521 -0.0335067 -0.00343952 0.0375742 
2684 1 -0.140283 0.0113915 0.000423754 0.140745 
249 1 -0.0616377 0.0732169 0.0159507 0.0970275 
3096 1 0.0657669 0.104669 -0.0614707 0.138057 
240 1 0.0291583 -0.0162924 0.0832385 0.08969 
181 1 -0.0311379 -0.0595369 0.139008 0.154394 
46 1 0.0126365 0.0117682 -0.012955 0.0215871 
3211 1 0.0122036 -0.00110424 -0.0354992 0.0375545 
354 1 0.00400525 0.0218136 0.0310435 0.038152 
2939 1 0.0136688 0.111341 -0.0193346 0.113831 
3512 2 0.0367177 -0.00987415 0.0309776 0.0490439 
3603 2 -0.0979946 0.0693971 -0.0451687 0.128293 
3701 2 0.0254069 0.00654429 0.0673514 0.0722811 
3513 2 -0.0126876 -0.0184106 0.0426103 0.0481203 
312 1 -0.0704018 -0.0935601 -0.0053272 0.11721 
587 1 -0.0047845 0.0133928 0.00531725 0.0151832 
134 1 0.0285404 0.0676715 0.00998974 0.07412 
135 1 -0.0861184 -0.0086738 -0.0399828 0.0953428 
1179 1 0.0375431 -0.00690216 0.0518888 0.0644171 
3003 1 -0.0206869 0.0254274 0.00556094 0.0332479 
191 1 0.0223716 -0.0343131 0.0673666 0.0788425 
685 1 -0.0425089 -0.0578689 -0.072402 0.10197 
602 1 -0.166804 -0.0147737 0.0429374 0.172874 
195 1 -0.0651379 0.0343964 -0.0484257 0.0881539 
3092 1 -0.0253742 -0.0659408 -0.00527156 0.0708507 
4195 2 -0.0425492 0.0459391 -0.0255982 0.0676469 
2995 1 -0.149954 -0.0198074 -0.0444031 0.157639 
540 1 -0.109532 0.0295689 0.053097 0.125263 
674 1 0.0322474 -0.0189437 -0.111098 0.117224 
920 1 -0.0563328 0.0847391 -0.0197163 0.103648 
902 1 -0.0105825 0.0619844 0.0844134 0.10526 
2004 1 -0.0709398 0.0214137 -0.0736526 0.104478 
427 1 -0.0648014 -0.0170297 -0.0445379 0.0804541 
4173 2 0.0292706 0.0872226 -0.0779766 0.120602 
2950 1 -0.135 -0.00799541 0.0175528 0.136371 
6 1 -0.0314928 0.104507 -0.00526081 0.109276 
182 1 0.0248733 -0.0165087 -0.073972 0.0797689 
690 1 -0.00124466 0.069673 -0.0284008 0.0752494 
154 1 0.0842859 -0.0347047 0.033146 0.0969907 
710 1 -0.00643139 -0.0756371 -0.0470844 0.0893268 
3115 1 -0.0558441 0.150191 -0.00192533 0.160248 
742 1 0.0116771 -0.0611906 -0.0778897 0.0997369 
2926 1 -0.181269 -0.0144359 0.0986053 0.206857 
80 1 -0.0150124 0.0212395 0.0261384 0.0368742 
2977 1 0.0415485 0.0617465 -0.129056 0.148978 
95 1 -0.0786754 4.19719e-05 0.0633206 0.100992 
3408 1 0.0185442 -0.0859421 0.0605831 0.106772 
3518 2 -0.11802 -0.0066772 -0.00376322 0.118268 
205 1 -0.0494933 0.0322433 0.0845594 0.103148 
694 1 0.0256823 -0.0334748 0.0161029 0.0451602 
861 1 0.0245442 -0.0513283 -0.058876 0.0818743 
3549 2 0.0220149 -0.11773 0.0495422 0.129613 
4014 2 -0.0448536 -0.0741275 0.0312321 0.0920987 
3401 1 -0.0183308 0.0925764 -0.0586619 0.11112 
1077 1 0.0596133 -0.0226163 0.0503352 0.0812335 
3234 1 -0.0865864 -0.0589323 0.0309218 0.109208 
3393 1 -0.0385236 -0.0186744 0.00765254 0.0434898 
3341 1 -0.0302746 0.0215124 -0.0870514 0.0946429 
512 1 0.0650965 0.0383221 0.113519 0.136355 
300 1 -0.047998 -0.0196271 0.00230125 0.0519069 
393 1 -0.0442719 -0.0554566 -0.0617587 0.0940722 
2740 1 0.0446096 0.0202413 -0.0147805 0.0511682 
3197 1 -0.0442543 0.0714747 -0.0539353 0.0998804 
4006 2 0.0240141 0.0626932 -0.0137476 0.0685282 
286 1 -0.0332049 -0.0465217 -0.0034432 0.0572598 
886 1 -0.0129922 -0.0818885 0.0217849 0.0857269 
277 1 -0.0321715 0.0301408 0.0566935 0.0718166 
364 1 -0.0190906 0.0673593 0.0175902 0.0721882 
1367 1 -0.0432215 -0.105254 0.0666801 0.131881 
411 1 -0.00155868 0.0564069 0.0318364 0.0647898 
3658 2 0.0582689 -0.105264 0.105669 0.16013 
334 1 -0.0049433 -0.0176708 -0.0446548 0.0482778 
356 1 0.0676151 -0.0293384 0.0141918 0.0750596 
4154 2 0.0203568 -0.0471981 0.00845651 0.052092 
357 1 0.00936876 -0.0222517 0.0473165 0.0531203 
265 1 0.0288233 0.0100074 0.0115575 0.0326268 
3389 1 0.0106808 -0.0659004 -0.0209171 0.0699604 
362 1 -0.0074491 -0.0302905 0.0583188 0.0661369 
478 1 0.0176533 -0.0167818 0.0452428 0.0513826 
4159 2 0.0226388 -0.0369591 -0.121788 0.129271 
2696 1 -0.0131113 0.0317825 0.0288366 0.044873 
780 1 0.0452343 -0.00538693 -0.036075 0.0581082 
966 1 0.0350422 0.0530538 0.0601005 0.0874913 
3612 2 0.0578839 -0.0657126 0.0654886 0.10935 
433 1 -0.0334482 0.141202 -0.111366 0.182919 
924 1 0.0684841 -0.00256907 0.0848879 0.109099 
2710 1 -0.00358653 0.0273899 0.0341111 0.0438935 
3313 1 -0.0241884 0.0304167 -0.015051 0.0416747 
3482 2 -0.0277557 0.0670566 -0.0879425 0.114021 
3290 1 0.0189478 -0.00891779 0.0618621 0.0653105 
3192 1 0.0454165 -0.0597909 0.0464797 0.0883062 
626 1 0.0697865 -0.0154909 0.0642706 0.0961292 
3333 1 -0.0323248 0.000935476 -0.104762 0.109639 
3303 1 -0.0236589 -0.101505 0.110887 0.152181 
3526 2 -0.0273464 0.0487099 -0.0396561 0.0685062 
3249 1 -0.00844942 0.125535 -0.0220712 0.12774 
92 1 0.0385584 0.0375947 0.0708138 0.0889646 
3379 1 0.0793526 0.0641248 -0.0158735 0.103251 
1449 1 -0.0402391 0.00158896 0.0352141 0.0534953 
903 1 0.0248988 0.0702829 -0.0101184 0.0752464 
160 1 0.0267402 0.0346091 -0.0450838 0.0628122 
100 1 -0.0101971 -0.119187 -0.00159874 0.119633 
3808 2 -0.0484054 0.0063305 -0.0120598 0.0502852 
462 1 0.0100589 -0.119268 0.0241907 0.122112 
2966 1 0.0755875 -0.0625153 0.0837397 0.128973 
3022 1 -0.0363016 0.0105823 -0.0816376 0.0899694 
750 1 0.0205898 -0.0841656 0.00872478 0.0870856 
3162 1 -0.0303734 -0.0109337 -0.0878387 0.0935827 
449 1 -0.0116056 -0.055481 -0.0406386 0.0697447 
3631 2 -0.00726229 -0.17413 -0.0381477 0.178408 
287 1 -0.0341411 0.0100084 -0.00278957 0.035687 
3647 2 -0.0234115 0.025987 0.0221639 0.0414085 
2890 1 7.45308e-05 0.00514328 -0.00209413 0.00555376 
1285 1 -0.0392343 0.121071 0.0428679 0.134295 
943 1 0.0320245 -0.0566507 0.0182343 0.0675823 
3305 1 0.0437167 0.117308 -0.0196883 0.126727 
3209 1 -4.72038e-05 0.0637099 -0.122227 0.137835 
3409 1 0.0118551 -0.0558293 -0.00752652 0.0575683 
4318 2 -0.0547324 0.0363862 0.0262396 0.070768 
763 1 -0.00769942 0.00782229 0.0207098 0.0234385 
3883 2 0.041932 -0.0497334 -0.0382825 0.0754801 
3531 2 -0.00513898 0.0176036 -0.00704238 0.0196441 
3227 1 0.0377574 -0.13797 -0.0365564 0.14764 
373 1 -0.019761 -0.0141397 0.0445556 0.0507506 
4297 2 -0.0945855 0.00199321 0.101436 0.138707 
3404 1 0.0814238 -0.020247 0.0238883 0.0872378 
3221 1 0.0304149 -0.0198248 0.0112359 0.0380044 
398 1 0.0324656 0.0388198 0.0746636 0.0901978 
2732 1 0.101014 0.0155847 -0.00948886 0.102648 
4123 2 -0.0296904 -0.0430353 0.0433524 0.067919 
1145 1 -0.0144936 -0.00921581 0.00209564 0.0173028 
836 1 0.122057 -0.0178799 -0.0595678 0.136989 
309 1 0.0251869 0.0107326 0.0305704 0.041038 
394 1 0.0175048 0.0334953 0.123524 0.129176 
412 1 0.0257058 0.065799 -0.0022181 0.0706768 
1212 1 -0.0530775 0.0247898 0.0195233 0.0617489 
3573 2 -0.041279 0.054408 0.0834897 0.107864 
3360 1 -0.0200907 -0.0166904 -0.0636956 0.0688429 
3319 1 0.0167538 -0.00668599 0.0463622 0.0497479 
3588 2 0.0107648 0.0650969 0.0421912 0.0783172 
2365 1 0.0669644 -0.0310701 -0.0412216 0.0845506 
306 1 -0.0982443 0.0622116 -0.0618845 0.131727 
3093 1 0.0817557 0.0571088 0.0338974 0.10533 
2745 1 0.0387328 -0.0554216 -0.0057253 0.0678569 
355 1 -0.121344 -0.00530569 -0.00111552 0.121465 
3097 1 0.0634267 0.0330774 -0.0133327 0.0727656 
228 1 -0.00288161 0.0409144 -0.0226034 0.0468317 
3324 1 0.0505583 0.115425 -0.0363222 0.131143 
951 1 -0.0922089 0.0341709 0.00932895 0.0987784 
2737 1 -0.0956888 0.100332 -0.00386419 0.1387 
2959 1 0.0760393 0.0896897 0.0162157 0.118698 
4284 2 0.00425183 -0.0192433 0.0347122 0.0399164 
4225 2 -0.0157744 0.00811689 0.031849 0.0364565 
3483 2 -0.0221868 0.026875 -0.031862 0.0472198 
3337 1 -0.0457699 -0.0243692 0.0205371 0.055772 
4116 2 -0.0798588 -0.0608424 0.0779447 0.127101 
716 1 0.0237801 0.0254305 -0.0998383 0.105735 
389 1 0.0449031 -0.102691 -0.0310713 0.116307 
601 1 -0.0212719 0.0302914 0.02893 0.0469788 
3094 1 -0.00197038 -0.0328167 0.0165685 0.0368148 
3617 2 -0.0953752 -0.0217095 0.0566219 0.113021 
206 1 -0.0402695 -0.0230638 0.0582548 0.0744795 
71 1 -0.0114855 0.0555806 0.0125571 0.0581274 
3561 2 -0.00258613 0.0460841 -0.110906 0.120127 
3676 2 0.0922108 -0.0377249 0.0533628 0.11302 
353 1 -0.0218921 -0.0513957 0.0272327 0.0621482 
962 1 0.0199833 -0.0242175 -0.0584604 0.0663584 
1324 1 0.0276139 0.0343755 -0.00854045 0.0449126 
4185 2 -0.0841053 -0.0411333 -0.00993371 0.0941506 
388 1 0.100776 0.0873998 0.0102197 0.133787 
1313 1 0.0794944 0.0306961 0.037909 0.0932668 
444 1 -0.0192722 0.112173 -0.0899517 0.145071 
3668 2 0.0814184 0.0530687 -0.0390312 0.104731 
838 1 -0.117898 -0.00898168 0.00639957 0.118413 
460 1 -0.157837 -0.0584149 0.0123729 0.168754 
499 1 -0.0545931 0.0388823 -0.0115855 0.0680181 
3548 2 -0.146694 0.0184813 -0.0232412 0.149669 
291 1 0.0559557 0.0198223 -0.0139503 0.0609801 
482 1 -0.067364 0.08645 -0.0645229 0.12718 
1314 1 -0.0526423 0.0213919 0.0234684 0.0614784 
3672 2 -0.0211505 0.103193 0.041568 0.113244 
375 1 0.0315804 0.0419888 -0.0241621 0.057829 
94 1 -0.043713 0.0139834 -0.0577692 0.0737811 
3281 1 -0.0985046 0.0133333 -0.00819073 0.0997397 
37 1 0.0242066 0.0185717 0.114516 0.11851 
3321 1 0.0561894 0.000801057 0.0506292 0.0756387 
4264 2 0.0910621 -0.052968 0.00878893 0.105713 
3664 2 -0.0585286 -0.0231058 0.00310181 0.0630007 
3380 1 -0.00388021 0.11253 0.0573491 0.12636 
901 1 -0.0748009 0.00941383 0.0421537 0.0863755 
4309 2 -0.0349955 -0.0295823 0.0175018 0.0490521 
392 1 0.0222587 0.0225878 0.0433828 0.0537376 
436 1 0.143254 0.12866 -0.0595975 0.201561 
792 1 0.059612 -0.04336 0.02684 0.0784479 
3293 1 0.0767849 -0.0176008 -0.109713 0.135065 
1354 1 -0.119836 0.0178343 0.0901554 0.151019 
318 1 -0.070871 -0.100965 0.051436 0.13365 
3350 1 -0.0597362 -0.0198584 -0.0184687 0.0656038 
3314 1 0.065234 -0.00275374 -0.0699314 0.0956737 
2861 1 -0.054408 0.051575 0.0557215 0.0934082 
3180 1 -0.0744075 -0.0865816 0.0326024 0.118726 
3150 1 0.0526794 0.0152065 0.0631496 0.0836315 
3320 1 -0.0417134 -0.126004 0.0276389 0.135577 
3095 1 -0.00966914 -0.0126823 -0.0156879 0.0223706 
2479 1 0.0222358 -0.0502531 -0.0266253 0.0610632 
614 1 0.0845437 -0.019472 0.00488223 0.0868943 
771 1 -0.033164 0.0651047 -0.0307678 0.0792788 
3392 1 -0.0621034 0.0143157 -0.00532844 0.0639544 
3257 1 -0.00160214 -0.0306004 -0.0207782 0.0370227 
2961 1 0.0136074 -0.0351541 -0.0219305 0.043611 
1304 1 -0.0291621 -0.0347396 -0.00290164 0.0454498 
4271 2 0.00291324 0.0396655 0.0474337 0.0619015 
1172 1 -0.0300317 -0.0637167 0.0386904 0.0803658 
652 1 -0.0627634 0.0376372 -0.00845467 0.0736701 
3568 2 -0.0870784 0.0269082 -0.00385549 0.0912226 
3433 1 0.0533223 0.0212247 -0.0554614 0.0798106 
3419 1 -0.0625107 0.0393235 0.0431946 0.0855553 
248 1 0.0631676 0.0221245 0.0274437 0.0723381 
3560 2 -0.0687296 -0.0522337 0.0499703 0.0997454 
3535 2 -0.06292 -0.000961119 0.031824 0.0705167 
4028 2 0.0491954 0.0059628 0.0735206 0.0886624 
3082 1 -0.0396626 -0.0108034 0.0297999 0.0507727 
3487 2 -0.0135471 0.0928967 -0.0049223 0.0940083 
328 1 0.0768053 0.00370801 0.0106992 0.0776356 
325 1 0.0517921 -0.0318548 0.029364 0.0675233 
292 1 -0.0691427 0.00531466 0.0451501 0.0827496 
3444 1 -0.0966841 0.00384598 0.0294544 0.101144 
908 1 0.0183647 -0.10971 -0.00719142 0.111468 
3504 2 0.160401 -0.0641472 -0.00365798 0.172791 
423 1 0.0761293 0.0739861 0.0363667 0.112215 
502 1 0.0325719 -0.010062 0.00196353 0.0341471 
3435 1 -0.0136673 -0.136759 -0.100406 0.170209 
430 1 -0.0585073 -0.0819838 0.0698045 0.122544 
439 1 0.0258525 0.0520202 -0.0506681 0.0770825 
3331 1 -0.00281308 0.0065471 0.0221057 0.0232258 
4182 2 0.0380497 0.044129 0.00747434 0.0587453 
874 1 -7.36049e-05 0.015107 0.0258749 0.0299623 
980 1 0.0622485 -0.0153434 -0.00153426 0.06413 
810 1 -0.00667874 -0.00207852 0.0642435 0.0646231 
3312 1 -0.0349766 -0.0215871 0.0608628 0.0734415 
1442 1 0.0365203 -0.0145569 -0.0304936 0.0497544 
225 1 -0.116883 -0.047333 -0.000398521 0.126104 
4280 2 -0.0499382 0.0761534 0.00900267 0.0915108 
416 1 0.0602951 -0.0120765 0.0814737 0.102075 
365 1 0.0206309 -0.0581835 -0.0132039 0.0631292 
3799 2 -0.0168562 -0.0315758 -0.0270186 0.044846 
2819 1 -0.0201602 0.00839979 0.0902092 0.0928154 
382 1 0.0620383 0.0274126 -0.084217 0.108133 
404 1 0.0493393 0.00711151 -0.088295 0.101395 
2776 1 0.0658457 0.0687017 0.0726845 0.119744 
2973 1 -0.000208796 -0.0227736 0.03053 0.0380889 
957 1 -0.0440059 0.00931422 0.000225328 0.0449814 
795 1 0.0211727 -0.118173 0.1583 0.198676 
490 1 -0.0479841 -0.0384005 0.0287633 0.0678558 
3266 1 -0.102478 0.0545347 0.0345439 0.121116 
2884 1 -0.106225 0.00643292 -0.0229386 0.108863 
22 1 -0.116831 -0.00153274 -0.0048179 0.11694 
4285 2 0.0554135 0.0122106 0.0847943 0.102029 
496 1 0.05053 0.0277873 0.0199781 0.061029 
2993 1 0.00975125 0.011617 0.0224869 0.0271238 
4256 2 0.0344127 -0.0775272 0.0199627 0.087139 
471 1 0.00137487 0.0650933 0.0381007 0.0754367 
517 1 -0.0131343 0.021782 0.000797047 0.025448 
279 1 0.0378514 0.0254353 0.00662759 0.0460827 
187 1 0.0339738 0.0358018 -0.0519897 0.0716863 
917 1 -0.0448261 -0.0233349 -0.0353801 0.06169 
3322 1 -0.00894036 -0.00415888 0.0995146 0.100002 
3863 2 -0.154043 0.0489023 -0.00643498 0.161747 
274 1 -0.0633436 -0.00864168 0.00137409 0.0639451 
1091 1 -0.00277337 0.0457256 0.124575 0.132731 
3396 1 0.0710186 0.00437525 0.0422529 0.0827532 
349 1 0.0796644 -0.00502399 0.0164989 0.08151 
2545 1 -0.0547194 0.00162377 -0.0773643 0.0947739 
3327 1 -0.101011 -0.0166842 -0.0123125 0.103117 
3674 2 -0.0479359 0.0624622 0.0777631 0.110664 
1418 1 0.159118 0.0348381 0.029714 0.165575 
443 1 0.0572301 0.087016 0.0548858 0.117726 
855 1 0.00758119 0.0435865 -0.108851 0.117498 
3420 1 0.0728529 -0.0552045 -0.0910169 0.128993 
2869 1 -0.0403167 -0.176368 0.0282645 0.183112 
4307 2 0.0253753 -0.172958 -0.036644 0.178609 
3476 2 0.00210412 -0.131826 -0.0524998 0.141911 
177 1 0.0109645 0.00420992 0.0176384 0.0211909 
363 1 -0.00205687 -0.095835 -0.0427909 0.104974 
1450 1 -0.0380539 0.0273475 -0.0109031 0.048113 
3559 2 -0.0165283 0.0352574 -0.0563838 0.068523 
347 1 -0.0382133 -0.0618488 -0.0320424 0.0794497 
4237 2 -0.0478519 -0.0304701 0.00735282 0.057204 
319 1 -0.0475452 0.0506947 0.0375606 0.0790019 
830 1 -0.0319425 0.0224436 -0.0071222 0.0396833 
295 1 -0.0643876 -0.010846 -0.0335408 0.0734057 
937 1 -0.0386228 -0.00168833 0.0304942 0.0492389 
268 1 0.082758 -0.00530146 0.0524818 0.0981393 
854 1 -0.0038864 0.0629605 -0.0151565 0.0648757 
442 1 0.00423574 0.0287889 -0.0123487 0.0316107 
875 1 0.0417807 -0.0654672 0.0325716 0.084217 
501 1 0.032576 -0.0249577 -0.00391525 0.0412239 
1289 1 0.0260867 0.014048 0.0104323 0.0314117 
3291 1 0.061181 0.00178739 0.00954174 0.0619464 
314 1 0.0171338 0.0275112 -0.0266095 0.0419345 
474 1 -0.044305 0.0158046 0.00119158 0.0470547 
3070 1 0.0509405 0.0281797 -0.0211904 0.0619521 
964 1 0.0841112 0.0713757 0.0453264 0.119263 
793 1 0.0452428 0.0223901 0.0848985 0.0987724 
3397 1 0.0187503 0.0336072 -0.0350098 0.0520259 
899 1 -0.0658225 0.107432 0.00775661 0.126231 
1337 1 -0.0164256 0.0759298 -0.0205391 0.0803553 
3278 1 0.00744637 0.00554964 -0.100647 0.101075 
3544 2 0.0472175 0.0283678 -0.0574082 0.0795608 
1430 1 -0.00226093 0.00678747 -0.0355962 0.036308 
3200 1 -0.00260922 -0.0746823 0.0741604 0.105281 
757 1 -0.0919245 0.087876 0.0371643 0.13249 
822 1 -0.00298762 -0.0206392 0.0519467 0.0559764 
3678 2 0.0017975 0.0276597 0.0526767 0.0595242 
699 1 -0.0261278 0.035715 0.0110453 0.0456094 
329 1 0.067823 0.0947333 -0.0695312 0.13568 
3383 1 -0.0762687 0.0417037 -0.0109043 0.0876072 
85 1 0.0358951 -0.0925856 0.0959769 0.138102 
3240 1 -0.05004 -0.0338373 0.0314316 0.0680949 
113 1 -0.00205071 0.0277948 -0.0700968 0.0754342 
504 1 -0.0465895 -0.198126 0.0330571 0.206197 
581 1 0.0504569 -0.0405016 0.118365 0.134894 
2795 1 -0.073362 -0.0485341 0.0414005 0.097219 
3541 2 0.00622089 0.0228317 -0.00756819 0.0248447 
786 1 -0.0296822 -0.035201 0.110948 0.120123 
800 1 -0.0482118 -0.0104398 0.00384745 0.049479 
367 1 -0.0254704 0.0129238 0.000563839 0.0285672 
2687 1 0.0557914 -0.139239 -0.019505 0.151263 
3545 2 0.0161287 -0.00662224 -0.00287419 0.0176706 
491 1 0.0168342 0.0616098 0.000809536 0.0638734 
781 1 -0.0345529 -0.0563466 0.119067 0.136183 
654 1 0.061449 -0.0909303 -0.0247211 0.112496 
4098 2 -0.0187956 0.0669702 -0.0445134 0.0825817 
3434 1 0.000344321 0.11133 -0.0780561 0.135968 
2814 1 0.030838 0.116019 0.0505507 0.130257 
1723 1 -0.0413594 0.029498 0.0430674 0.0665998 
3264 1 -0.0178491 0.00827238 0.0994976 0.101424 
440 1 0.0345756 -0.0875483 0.0774103 0.121871 
431 1 0.0540498 0.00577529 -0.00192185 0.0543915 
483 1 -0.0106958 0.0635897 0.111872 0.129126 
1254 1 -0.0439664 0.00428678 -0.109071 0.117677 
968 1 0.00387522 0.049757 0.0226921 0.0548244 
801 1 -0.0142817 -0.0615714 -0.0424933 0.0761622 
2656 1 0.0526918 0.0303751 -0.0858473 0.105209 
421 1 0.0375797 0.00243696 -0.0673946 0.0772023 
4152 2 0.0287202 0.166581 -0.0777565 0.186065 
461 1 0.0230005 0.112286 -0.125732 0.170134 
3339 1 -0.00939371 0.0740492 0.0726505 0.104162 
840 1 -0.0638136 0.084056 -0.0333737 0.110686 
3436 1 -0.0697812 -0.0165517 0.0821706 0.109066 
3371 1 -0.0930496 0.0526112 0.0219342 0.10912 
486 1 0.0291684 -0.0616216 -0.0116815 0.0691699 
308 1 -0.0354726 0.00324273 -0.0340501 0.0492771 
307 1 -0.0318871 0.0134103 0.0568896 0.0665812 
208 1 -0.0184956 0.0457823 0.0277351 0.0566334 
647 1 -0.00743884 0.0500562 0.0472511 0.069236 