ITEM: TIMESTEP
8600000
ITEM: NUMBER OF ATOMS
4320
ITEM: BOX BOUNDS pp pp pp
0.0000000000000000e+00 1.9309999999999999e+01
0.0000000000000000e+00 1.9309999999999999e+01
0.0000000000000000e+00 9.6549999999999994e+00
ITEM: ATOMS id type c_displacement[1] c_displacement[2] c_displacement[3] c_displacement[4] 
2675 1 1.99163 -0.300663 -2.57723 3.27095 
4020 2 3.56174 0.836946 1.91142 4.12796 
3272 1 1.75815 2.1563 -0.858096 2.91153 
289 1 -0.468785 0.651917 -0.692281 1.06019 
2540 1 2.41299 0.715817 -1.11254 2.75185 
381 1 0.205281 -0.372313 0.133423 0.4456 
4005 2 4.41484 -3.64843 0.695519 5.76937 
4177 2 0.864831 -2.66168 -1.24516 3.06315 
2941 1 1.77927 1.7869 -2.50862 3.55697 
66 1 0.305071 -0.742503 1.10192 1.36331 
3679 2 -1.5355 1.5786 1.42117 2.62096 
1991 1 1.3088 0.233445 1.18583 1.78147 
114 1 0.812494 -2.29956 -1.79129 3.02603 
722 1 -0.841362 -0.641327 -1.32988 1.69935 
4198 2 -1.45213 -4.17598 4.42709 6.25673 
2504 1 2.30524 -2.5835 1.38739 3.73008 
2495 1 0.892423 -1.60206 -2.08883 2.77961 
997 1 -1.69969 0.0328291 -1.55128 2.30141 
167 1 0.269082 0.0251617 -1.85203 1.87165 
4187 2 -2.24183 1.82867 -3.74218 4.73008 
546 1 1.41269 1.94908 -2.11529 3.20453 
4286 2 3.7978 1.47247 -5.44745 6.80193 
69 1 -2.59846 1.33082 -0.883447 3.05017 
2560 1 2.72987 -0.902572 -0.235413 2.88483 
50 1 -0.877407 0.225201 -1.28484 1.57206 
3731 2 -7.0342 1.03217 2.12562 7.42048 
1178 1 2.23661 1.70977 -1.0904 3.01906 
683 1 -0.988883 2.85422 0.281282 3.03374 
4228 2 -0.306324 3.15992 -3.48987 4.71785 
81 1 -0.94702 1.07301 2.42454 2.81542 
1271 1 -2.18383 -1.01794 -1.38413 2.77869 
589 1 -1.82543 -0.905819 -0.950156 2.24845 
920 1 -0.403558 1.5647 0.844204 1.82314 
621 1 -2.71498 1.84989 0.530975 3.32793 
3743 2 -0.223301 -0.556832 -3.097 3.15457 
129 1 0.828505 -0.226438 -0.274623 0.901728 
2496 1 1.71052 0.144425 -0.774182 1.88311 
4169 2 -1.2786 2.12958 -4.38638 5.04086 
3024 1 1.11315 -0.203889 0.218111 1.15249 
1088 1 -0.432969 0.351601 -1.155 1.28262 
210 1 0.86185 0.282674 -0.558133 1.06499 
473 1 0.184776 0.214993 0.574431 0.640574 
121 1 1.52649 2.36754 -0.992229 2.98662 
4168 2 1.41866 -2.63707 0.950651 3.14173 
205 1 -1.40893 -0.829559 -0.0453846 1.63564 
532 1 1.12419 -1.09224 -0.00927257 1.56744 
231 1 1.26167 0.282455 -0.337802 1.3363 
3094 1 1.16105 -1.43865 -0.802462 2.01536 
593 1 -0.288503 -0.904984 0.848174 1.27343 
53 1 -0.736588 -1.30528 -1.6397 2.22147 
3353 1 -0.596771 -4.02239 0.90859 4.16669 
863 1 1.80298 2.72732 -3.56708 4.83871 
3394 1 -0.410313 -0.207389 -4.8648 4.88647 
3512 2 -0.0715667 -1.44654 2.47521 2.8678 
3135 1 -0.379343 0.0962816 -0.292708 0.488722 
4225 2 1.53828 1.06359 0.339616 1.90076 
134 1 0.136195 -0.77325 1.29898 1.51783 
421 1 -1.12694 3.82672 0.414544 4.01069 
3080 1 2.88242 -2.40274 -2.08522 4.29298 
3660 2 -4.54684 3.91693 -2.26035 6.4129 
49 1 -2.42336 -2.00275 -1.15428 3.34904 
2542 1 1.0973 -0.333187 1.55232 1.92997 
878 1 -2.32143 1.75707 -3.31151 4.40936 
3189 1 1.87876 0.117187 1.17222 2.21756 
659 1 2.2437 -2.38149 -0.325134 3.28807 
817 1 0.198206 1.38687 0.536502 1.50017 
96 1 0.0447487 -0.0198849 -0.303023 0.306954 
2939 1 0.568575 1.22815 1.8672 2.3061 
962 1 -2.54849 -1.85561 -0.675717 3.22408 
317 1 0.922941 0.454049 -2.0889 2.32841 
821 1 -1.39164 -2.17894 -2.36303 3.50262 
5 1 0.673507 -0.218907 -1.67051 1.81442 
58 1 0.97809 -0.657481 0.853685 1.45524 
3346 1 0.976743 0.666485 -2.77521 3.01663 
608 1 -1.30169 0.329408 0.369813 1.39272 
323 1 -1.40842 -0.34748 0.225116 1.46801 
3069 1 2.84837 -0.431989 -1.93328 3.46949 
2979 1 -0.727912 0.179894 -0.711139 1.03341 
2591 1 0.250705 0.33903 -1.33076 1.39597 
859 1 -0.704004 -0.656729 -1.81704 2.05635 
4291 2 0.718944 -0.626208 -1.31032 1.62048 
727 1 -1.21509 -0.151243 -1.20926 1.72094 
3232 1 -1.10526 1.67832 -1.84794 2.73007 
2453 1 0.576896 -0.31931 -0.371888 0.757013 
3055 1 -1.05001 1.37962 -0.675036 1.86052 
390 1 0.436555 -1.21032 0.11091 1.29142 
2461 1 0.663139 -0.696783 -1.87657 2.10874 
3167 1 0.36832 0.550425 -0.442161 0.796325 
972 1 -1.22455 0.953378 -2.08681 2.60062 
3627 2 -0.186289 1.33084 2.1816 2.56227 
3052 1 1.237 -2.16455 2.7507 3.71239 
716 1 -1.50869 -0.568736 -0.373027 1.65492 
3736 2 0.519861 -0.00711245 -2.66407 2.71433 
78 1 0.319541 -0.739691 -1.96604 2.12475 
339 1 -1.77782 1.54279 -0.355859 2.38065 
401 1 -2.56099 1.09769 1.73696 3.28339 
206 1 -0.152717 -1.04245 -1.10712 1.52832 
2921 1 3.83656 1.3072 -1.19071 4.22442 
527 1 -0.253946 -1.98401 -0.918655 2.20107 
497 1 1.69366 3.09599 -2.82257 4.5189 
3570 2 2.06156 -1.01136 0.570623 2.36611 
4222 2 4.999 -1.89668 1.98252 5.70243 
3392 1 0.107644 2.08177 0.436745 2.12981 
2735 1 0.293071 -0.579074 1.02865 1.21628 
3149 1 0.173386 -2.44919 -0.359129 2.48145 
3467 2 0.829071 0.634155 -0.864001 1.35499 
2945 1 1.73794 -0.404346 1.01362 2.05216 
818 1 -0.483779 1.99639 0.395811 2.09196 
3620 2 -0.994521 -0.440508 -4.58427 4.71155 
766 1 -2.79592 -0.90812 0.730686 3.02915 
639 1 1.23167 -1.54478 1.59348 2.53821 
140 1 -0.882813 0.225376 -0.808426 1.21807 
896 1 -1.21426 0.591815 -0.712214 1.52706 
3006 1 1.93522 0.444638 -1.21898 2.32996 
894 1 -0.882921 2.99173 0.226962 3.12755 
3831 2 6.14383 2.60638 -0.774247 6.71858 
133 1 -0.731975 1.81764 -3.04891 3.62429 
1888 1 -2.21722 0.637272 -0.485947 2.35761 
511 1 0.823531 -0.791969 0.612487 1.29636 
1415 1 0.977233 1.25675 1.61567 2.26821 
343 1 1.6685 2.97237 -1.35444 3.66788 
105 1 2.29254 -0.587689 -1.00218 2.57012 
3656 2 -2.39831 -5.32878 -4.01261 7.08864 
633 1 2.23438 3.45904 -0.356866 4.13337 
3017 1 0.853211 -0.278184 0.466862 1.01159 
568 1 1.07778 -2.09293 2.02578 3.10576 
72 1 -0.756958 1.74593 -0.0812767 1.90469 
93 1 0.603583 2.00828 0.918248 2.28925 
54 1 -0.0945489 2.13381 -2.76084 3.4906 
3152 1 1.31164 -0.0963124 0.691864 1.48605 
803 1 -2.55751 1.3502 -2.67293 3.93808 
106 1 0.566489 1.66423 -0.958163 2.00216 
4224 2 1.32609 -1.79423 -3.7027 4.32293 
479 1 0.450199 -0.195921 -0.501769 0.702023 
43 1 0.29881 0.0051121 -0.240238 0.383442 
723 1 -1.93561 -0.0779514 -1.53568 2.47203 
453 1 -0.790597 -0.874321 -0.680479 1.36108 
3631 2 -0.258222 -3.11666 0.671354 3.19859 
3040 1 -1.59087 5.13674 -0.304813 5.38608 
21 1 -0.319084 2.41359 1.0773 2.66229 
825 1 -0.131488 0.915797 -0.679052 1.14764 
550 1 -1.2552 0.600608 1.1349 1.79562 
3680 2 3.85746 0.538817 -3.56141 5.27768 
379 1 -0.5935 -0.16369 -0.459184 0.768041 
3335 1 0.053731 -0.444941 -1.25317 1.3309 
358 1 -1.87177 0.700083 -3.04282 3.64038 
3518 2 -1.58187 -1.2207 0.856248 2.17385 
4259 2 4.02423 0.620917 -4.93996 6.40181 
8 1 -1.67237 2.48083 0.476184 3.02954 
1001 1 -2.53841 2.07726 -4.31137 5.41724 
3003 1 2.61081 0.0812975 0.555097 2.67041 
413 1 -0.455053 -0.530284 -1.00828 1.22674 
3584 2 -1.10284 -1.93599 3.08407 3.80471 
3722 2 -2.10499 0.55356 -2.05993 2.99679 
3701 2 -0.743171 1.22885 3.04141 3.36341 
2968 1 0.681055 -1.4588 -0.155469 1.61743 
717 1 0.499675 -0.245404 -0.357747 0.661726 
4025 2 5.23652 4.04442 2.67078 7.13523 
2960 1 -1.04282 -0.800029 0.713726 1.49564 
496 1 0.974867 0.9346 0.816858 1.57832 
493 1 -0.166573 -2.57992 -0.750718 2.69208 
914 1 -1.77697 -2.21172 0.445675 2.87193 
958 1 -1.42216 0.105132 -1.54439 2.10208 
3883 2 -1.78322 -4.16579 3.62959 5.80582 
211 1 1.97156 -1.07171 -2.96257 3.71651 
244 1 3.13097 -1.82274 0.578577 3.6688 
3699 2 -1.80159 1.78968 -7.28794 7.71769 
437 1 0.582958 1.02545 1.41901 1.84526 
4287 2 -2.76059 -0.784337 0.0423358 2.87016 
609 1 0.527111 0.544798 1.77737 1.93227 
354 1 0.185854 -1.48135 -0.0856894 1.49542 
3393 1 0.888979 -1.89705 -1.77435 2.74544 
812 1 -1.50155 -0.891175 -2.58084 3.11602 
40 1 0.173894 0.507687 -0.954641 1.09514 
157 1 -0.305176 0.880968 -2.26053 2.44525 
524 1 -1.25553 -0.328766 -1.13934 1.727 
3117 1 2.37445 0.170258 -0.518425 2.43634 
718 1 -0.461081 2.00172 2.09971 2.93739 
91 1 2.16027 0.197657 0.636572 2.26076 
180 1 -1.95943 1.49609 -1.3144 2.7938 
4289 2 -1.46355 -3.14813 2.0203 4.01676 
23 1 -1.1556 -1.29284 1.70386 2.43104 
257 1 0.45916 -0.14931 -0.246607 0.542159 
2981 1 -0.759697 -0.845485 -0.397077 1.20402 
1130 1 0.441434 2.76134 -0.612088 2.8626 
348 1 -1.99132 -0.0684416 -1.61502 2.56482 
330 1 -1.24291 0.304708 0.432777 1.35091 
3730 2 0.400398 0.587622 1.28604 1.46953 
25 1 -2.15482 2.81528 1.46369 3.83555 
1457 1 -0.612944 -1.44518 -0.450033 1.63302 
3037 1 1.03498 -1.17086 0.896186 1.80146 
2795 1 1.78122 -4.17045 -3.66205 5.8289 
3622 2 -4.88938 -0.0893253 0.606434 4.92765 
644 1 -0.129161 -0.231115 0.573778 0.631916 
2515 1 0.934638 2.1053 0.0918025 2.30527 
3369 1 -0.882217 -0.0361368 -0.35732 0.952518 
1452 1 -0.647368 0.62213 -0.886057 1.26144 
604 1 -0.820327 4.06532 0.821062 4.22775 
2934 1 -0.3715 1.55508 -2.18559 2.70797 
3564 2 -5.82922 -2.61431 2.86249 7.00059 
3007 1 1.45029 1.11119 -1.99223 2.70316 
3535 2 1.34841 -0.595812 0.436713 1.5375 
3541 2 -0.246805 -2.30229 -2.54597 3.44143 
113 1 0.17527 -1.94929 -0.47516 2.01401 
600 1 -1.1638 0.977628 -0.931686 1.78276 
3477 2 0.682082 -1.66694 -0.623653 1.90601 
3200 1 -0.108288 1.32912 -0.602633 1.46337 
3525 2 -3.51304 -7.55069 1.01117 8.38909 
1252 1 2.33217 1.73737 0.469827 2.94588 
195 1 1.43239 -2.49215 -0.353867 2.89617 
216 1 1.13368 0.0326002 1.18521 1.64043 
787 1 -1.86574 -1.294 2.39457 3.29991 
3378 1 1.97065 2.1363 -1.19469 3.14238 
182 1 -0.276029 1.64315 -0.146515 1.6726 
4271 2 -1.06257 -1.65352 3.53967 4.04876 
160 1 0.137002 3.00141 2.56985 3.95365 
3447 1 2.40052 0.453188 -1.01348 2.64481 
1480 1 -1.55686 0.365647 0.819851 1.79713 
719 1 2.64544 -0.43417 -1.00297 2.8623 
2931 1 -0.503601 0.949062 1.74629 2.05034 
3603 2 -1.83199 0.464702 -1.00153 2.13897 
1149 1 -0.653214 1.70679 -1.35902 2.27744 
3786 2 0.174241 -1.02123 1.96232 2.219 
98 1 0.0260666 0.779495 1.49782 1.68871 
3411 1 -1.63199 1.46613 0.737331 2.31443 
1215 1 -1.47351 -1.41072 2.38397 3.13763 
67 1 2.07471 -1.44598 -0.256104 2.54183 
3256 1 -1.77828 0.682824 -1.77552 2.60403 
3514 2 0.552864 0.703249 -2.97819 3.10963 
135 1 -0.0249877 1.51821 -1.41976 2.07878 
3586 2 -1.9433 3.44543 -2.86317 4.88315 
563 1 -0.0262808 0.5978 0.839793 1.03117 
1575 1 -2.5386 1.94706 -3.13405 4.4786 
2936 1 0.146346 0.0364195 2.25894 2.26397 
3616 2 -2.99948 0.767361 -3.33141 4.54797 
1179 1 -1.1658 1.36294 -1.88635 2.60288 
1116 1 2.26484 0.0649483 -0.249463 2.27947 
674 1 -0.0780246 -0.707753 -1.29066 1.47404 
3038 1 -2.00684 0.390277 1.71016 2.66541 
3651 2 -0.123254 2.82569 -2.77623 3.96323 
3216 1 -0.436381 -2.02407 1.24372 2.41539 
131 1 2.49443 -1.12973 -1.40253 3.07662 
2477 1 0.585922 2.16915 1.90157 2.94354 
178 1 0.623823 0.373831 0.430954 0.845355 
622 1 -1.50132 0.0168505 1.58915 2.18624 
3030 1 -0.603199 1.16053 0.384836 1.36337 
237 1 -1.48735 -0.174239 1.1337 1.87825 
6 1 0.460839 0.638653 -0.538566 0.954098 
3164 1 0.619395 3.00052 2.50479 3.95736 
3475 2 2.52372 -0.946659 -1.5758 3.12226 
103 1 0.165945 2.05626 -0.0664514 2.06401 
3819 2 -2.73519 -3.79396 -1.97087 5.07541 
3419 1 -0.863409 -1.93512 0.625465 2.20938 
1714 1 -3.1252 -3.62914 -2.76817 5.53176 
1278 1 -1.88567 0.766845 -0.416262 2.07776 
2926 1 0.361559 1.24421 -1.83437 2.24581 
742 1 -0.0821157 1.74926 -0.619932 1.85768 
4028 2 0.550822 -0.606056 0.767918 1.12268 
3408 1 -0.567681 -1.89699 0.309993 2.00423 
677 1 0.0845319 -0.823077 -0.369642 0.906221 
207 1 -0.974589 -0.764387 0.816077 1.48327 
181 1 -0.451581 -0.18234 -0.0062398 0.487045 
249 1 1.31875 0.169891 -0.0775527 1.33191 
402 1 0.810132 1.96274 0.221783 2.13491 
240 1 0.87076 0.472933 -0.572054 1.14417 
4209 2 3.00404 -1.65667 -1.04071 3.58495 
3223 1 -0.688815 0.196203 -0.716899 1.01336 
99 1 1.28381 -0.266157 -0.79086 1.53116 
4098 2 -1.84449 2.88705 -0.403876 3.44969 
3687 2 -2.94574 0.788537 5.75964 6.5171 
36 1 1.55296 1.98033 1.61211 2.9887 
197 1 0.0582673 0.861529 -4.03747 4.12878 
3057 1 0.47757 0.610332 0.336719 0.844961 
3640 2 -2.82212 -1.34986 1.9395 3.68078 
2636 1 2.89674 1.33964 -1.50833 3.52999 
3196 1 -0.549814 0.822854 -0.870298 1.31788 
4235 2 2.49687 0.78107 0.275151 2.63062 
377 1 -1.99228 -1.44067 0.76759 2.57564 
1160 1 -1.2226 1.0962 -1.6134 2.30206 
3092 1 -0.303654 0.568486 0.377625 0.746983 
2639 1 1.2681 0.561261 -0.446243 1.45678 
213 1 0.867455 -1.01685 1.08239 1.71989 
587 1 0.588841 0.92929 -0.00342545 1.10015 
4094 2 2.40158 0.227035 1.83576 3.03136 
1569 1 -1.02364 1.04489 -1.80564 2.32378 
733 1 -0.468612 -0.770136 -0.677253 1.12755 
602 1 -0.689382 0.231107 -0.612615 0.950765 
599 1 1.39812 -1.51194 0.422265 2.10215 
217 1 0.51306 -0.176271 -0.688858 0.876827 
3592 2 -3.14015 2.28942 0.47181 3.91466 
1036 1 -0.111932 -0.492243 1.20568 1.30709 
2988 1 -1.71809 0.14813 1.34888 2.18935 
721 1 1.28314 1.09042 2.71265 3.1928 
3415 1 2.96484 0.402458 0.421036 3.02151 
2950 1 0.850584 3.45298 0.125111 3.5584 
3568 2 -0.259629 -3.29628 3.81946 5.05185 
489 1 2.98919 -2.13951 1.10882 3.83956 
3010 1 2.16553 3.03628 2.19151 4.32565 
710 1 -0.518732 1.63833 0.554996 1.80589 
4248 2 0.457812 -0.122714 1.59032 1.65945 
338 1 -0.71279 -0.35402 -0.897002 1.19917 
2508 1 1.79716 -0.220283 -0.239213 1.82634 
1407 1 -1.43487 -1.00644 -2.34824 2.93019 
30 1 2.01742 0.844412 -0.567293 2.25939 
3020 1 0.769947 -0.872666 -1.74337 2.09612 
517 1 -0.851707 0.85128 1.20971 1.70689 
301 1 1.16152 0.153745 1.21142 1.68532 
2994 1 0.112839 3.22442 0.468041 3.26017 
3974 2 -0.814056 -1.01996 1.59217 2.05864 
4308 2 2.04019 0.491876 -0.584762 2.17859 
614 1 -0.662893 1.00747 1.17446 1.68338 
886 1 -0.024621 -1.29258 -1.06554 1.67534 
429 1 2.71902 -0.365775 1.19865 2.99393 
4192 2 4.35615 -6.40894 0.0643463 7.7495 
34 1 -2.59251 4.47017 -0.854701 5.23775 
446 1 0.295614 2.31541 0.83294 2.47837 
504 1 -1.54976 -1.05473 1.79309 2.5941 
100 1 -0.932942 -0.0358322 -1.54144 1.80213 
3401 1 -0.0988925 1.33695 0.825142 1.57419 
858 1 -0.732049 2.03575 -1.27521 2.51124 
3330 1 1.92187 1.75398 -0.931851 2.76376 
699 1 -0.340282 2.09515 0.640409 2.21711 
861 1 -0.977974 0.566325 0.824045 1.39864 
3520 2 -4.72532 -3.87313 2.37557 6.55539 
772 1 -0.324039 -0.545514 1.39282 1.53054 
786 1 -1.10293 0.262195 1.74115 2.07769 
3388 1 -3.18452 1.3023 0.157122 3.44411 
801 1 -0.106446 -2.47011 2.06251 3.21974 
4154 2 -0.960719 -0.775053 0.757186 1.44811 
3404 1 1.28581 -0.713131 -0.688284 1.62345 
836 1 0.677487 -1.04497 -1.68483 2.09514 
3389 1 0.207758 -1.08823 0.509906 1.2196 
4121 2 1.69444 1.18978 4.5271 4.97808 
2965 1 -1.51603 1.08034 2.43462 3.06478 
478 1 -0.166255 -1.34772 -1.15043 1.77974 
1590 1 -2.69169 -3.12061 -1.9089 4.54173 
362 1 -0.567473 0.142352 0.249611 0.636078 
2401 1 2.4354 0.647358 -0.73671 2.62545 
411 1 0.634191 0.76537 0.479359 1.10353 
3769 2 -3.82235 -6.01606 1.48472 7.28064 
1349 1 -0.767 -1.28371 1.67042 2.24199 
3546 2 -0.931169 -1.09808 -2.60524 2.9766 
771 1 -0.946295 -0.307623 0.0360648 0.995694 
461 1 -0.800339 -0.0632368 1.18536 1.43165 
325 1 -0.711956 -1.22757 -0.395512 1.47318 
3970 2 -4.43823 -2.32446 3.34107 6.02194 
935 1 -2.56822 -1.95746 -1.4423 3.53661 
3421 1 2.4164 0.790948 1.43785 2.92096 
1449 1 -0.634471 -1.60243 -1.27927 2.14636 
2316 1 3.55657 -1.14241 -1.72916 4.11635 
3717 2 -3.17573 -0.580025 3.12688 4.49434 
319 1 1.80507 -0.784036 1.6612 2.57538 
309 1 -0.209305 -1.10715 -1.57686 1.93806 
342 1 3.85078 -0.838123 0.0964429 3.94211 
448 1 -2.54574 -0.448731 0.306288 2.60306 
307 1 -0.0442697 -0.848156 1.23029 1.49497 
3379 1 -0.6468 -0.754293 0.160894 1.00658 
3690 2 -4.2871 -0.699785 -0.390174 4.36132 
484 1 1.16011 -2.07683 -0.0408372 2.37923 
3471 2 -4.82384 -1.34363 1.53565 5.23765 
1300 1 -0.970997 -0.710801 -0.995163 1.56155 
171 1 1.21001 -1.56403 -0.453667 2.02883 
2365 1 -1.9724 -0.510918 -0.606811 2.12594 
221 1 -1.03696 0.184352 0.647077 1.23612 
767 1 3.28379 -2.16657 0.897733 4.03525 
635 1 -1.94876 -2.7429 1.14995 3.55578 
155 1 -2.17014 0.577853 2.41256 3.29604 
246 1 0.326495 1.79557 1.36086 2.27654 
3409 1 0.882839 -1.63985 0.748309 2.00711 
2052 1 0.219406 1.66804 1.50753 2.25901 
274 1 0.668747 1.93919 4.2702 4.73733 
3162 1 -0.174673 0.640899 0.173892 0.686659 
3752 2 -3.47019 1.48736 1.28898 3.98948 
3084 1 1.11667 -0.258746 -0.187647 1.16151 
4239 2 1.66643 -3.01418 1.7201 3.84981 
449 1 -0.163612 0.549694 -0.0266272 0.574144 
811 1 -1.98614 0.46325 0.0767567 2.04089 
2966 1 -0.474482 1.59041 0.439472 1.71688 
4085 2 -1.29484 -1.86758 4.59846 5.12936 
373 1 -1.31186 0.72177 -1.03278 1.81894 
974 1 -1.39051 -0.799422 0.986127 1.88282 
356 1 -0.785781 -0.380229 0.598826 1.05859 
364 1 0.831954 0.43695 1.14675 1.4826 
3380 1 0.201218 -1.85759 -1.92491 2.68262 
4318 2 0.39528 1.04926 0.0840601 1.12439 
2732 1 0.0261896 -0.195054 -0.931547 0.952109 
879 1 -3.40945 1.64634 -1.14109 3.95435 
293 1 1.79765 -0.243065 -1.00735 2.07494 
1212 1 -0.641959 0.0372283 -0.775692 1.00757 
3390 1 -2.378 -2.15996 -0.598261 3.26776 
382 1 0.196721 -0.372015 -2.82128 2.8525 
385 1 -2.14824 -3.61659 -1.58188 4.49411 
2757 1 1.2298 -0.910337 0.18493 1.54121 
4146 2 -2.83585 0.746291 0.0198188 2.93247 
474 1 1.40919 -2.90077 -3.95545 5.10351 
3028 1 0.262667 -2.51941 -0.254972 2.54587 
3495 2 -3.90761 0.337911 0.486151 3.95221 
3314 1 -0.223455 -0.221217 -2.23527 2.25727 
3249 1 -1.15149 -1.66871 1.02408 2.2714 
3661 2 -3.75138 -1.50247 -0.0512757 4.0414 
780 1 0.425427 0.527663 1.98821 2.10057 
2848 1 1.68537 0.648429 1.21275 2.17525 
3013 1 0.784818 0.2353 -2.45809 2.59104 
306 1 -0.482873 0.747438 0.475665 1.009 
626 1 -0.0808063 -2.2591 1.24162 2.57908 
3161 1 2.37341 -2.189 -1.36335 3.50478 
2819 1 -0.358458 -1.29097 -2.09437 2.48625 
29 1 0.536761 -2.13069 -1.47023 2.64377 
2620 1 2.39183 -2.2849 -0.269374 3.31876 
4142 2 3.79889 -4.55233 -2.7077 6.5182 
2838 1 0.360333 -0.936773 0.34657 1.06184 
2506 1 2.40283 -0.651583 -1.21388 2.76977 
951 1 0.586601 0.648029 0.137157 0.88479 
2768 1 -0.286502 -0.932736 -0.490253 1.09198 
3445 1 1.62184 -1.20947 0.41251 2.06479 
3578 2 -0.788345 1.17481 2.64145 2.99649 
1313 1 1.11873 -1.27753 1.23297 2.09854 
4053 2 1.17919 -2.22119 2.98512 3.90322 
526 1 -0.607299 3.5826 1.26267 3.84684 
741 1 -2.25591 0.0496416 -2.52202 3.38411 
551 1 -1.19533 2.41734 -1.99277 3.35313 
601 1 -0.629072 0.221775 0.509391 0.839283 
435 1 -1.16629 0.139132 0.161719 1.18564 
3860 2 -4.85888 -0.696995 3.89105 6.26377 
2880 1 1.32958 -1.68039 2.49839 3.29142 
3676 2 0.0875771 0.479832 1.39301 1.47593 
2983 1 0.498043 -2.66643 0.946339 2.87288 
800 1 1.36198 -1.31416 4.35345 4.74705 
1285 1 -1.62482 0.261291 0.933869 1.8922 
4181 2 5.00959 -4.29006 -1.22706 6.70867 
346 1 -1.33282 0.888245 0.590559 1.70709 
499 1 -1.60837 0.591051 0.128649 1.71835 
250 1 -1.77934 -2.16519 0.327231 2.82156 
291 1 1.62903 -1.56303 0.553868 2.32455 
441 1 1.4468 -2.23657 0.374254 2.6899 
439 1 0.264683 0.702891 -0.38953 0.846077 
1450 1 -0.639291 -0.65793 -2.92619 3.06662 
398 1 0.279944 -1.16587 0.604598 1.34281 
4056 2 -2.47487 -1.1325 -0.2575 2.73384 
1432 1 -1.10275 -0.55737 -1.25242 1.75934 
980 1 0.113586 0.0623526 -2.00417 2.00835 
3483 2 0.32998 -4.67279 2.10629 5.13618 
838 1 1.00893 1.31723 -0.13125 1.66441 
4265 2 1.98276 1.1288 -0.0386309 2.28189 
2858 1 1.96392 0.295258 -0.825402 2.15069 
3333 1 -0.959235 -0.363385 -1.12532 1.52267 
3321 1 0.765978 0.614684 0.850262 1.29904 
2001 1 1.88771 -2.74514 0.776962 3.42095 
2973 1 0.916386 -1.5615 -1.51085 2.35812 
2861 1 -0.547236 -1.28719 0.1667 1.40859 
3571 2 -3.37539 1.50803 -6.94581 7.8684 
3180 1 0.499371 -1.58556 -0.890772 1.88596 
3646 2 3.9065 -3.39341 1.83622 5.49069 
915 1 -1.33565 0.256733 1.75944 2.22385 
2787 1 1.00015 1.10301 1.07006 1.83357 
4297 2 -0.994667 2.5277 2.105 3.43652 
2745 1 -0.0251135 -1.45388 1.30758 1.95555 
3320 1 1.04264 0.986697 -0.324565 1.47174 
404 1 1.254 1.91276 -1.40827 2.68596 
3343 1 2.25789 -1.54908 -2.48554 3.69806 
3785 2 -1.38276 0.589851 1.71933 2.28386 
294 1 2.78318 -0.9009 0.063517 2.92604 
3350 1 0.224675 -0.0276662 1.12216 1.14477 
4257 2 2.54765 0.0217269 0.100795 2.54974 
3539 2 -2.32218 -0.10384 1.7301 2.89768 
3476 2 -0.157652 0.0995594 -2.45585 2.46292 
4264 2 2.08186 1.01762 -1.47833 2.74866 
2776 1 0.233703 -0.961365 -1.06837 1.45611 
2993 1 0.692271 -1.02091 -1.63442 2.04763 
482 1 0.0283637 -0.86154 1.21807 1.49223 
869 1 -1.48185 -1.64131 1.7 2.78923 
4261 2 2.08862 0.609792 0.667098 2.27579 
389 1 -1.96259 0.647581 0.945683 2.27276 
187 1 -1.64994 0.704573 -1.42806 2.29305 
1314 1 0.137541 -2.08694 2.2557 3.0761 
456 1 -0.763175 -1.52198 0.717602 1.84765 
903 1 2.26464 -2.63826 -1.47891 3.77839 
1354 1 -0.270109 -0.66884 0.213577 0.752277 
943 1 -0.837434 -1.1614 2.77226 3.12019 
908 1 -0.0183354 -0.893228 0.350881 0.959849 
3313 1 -1.3317 -4.69982 -5.19258 7.12914 
3487 2 -1.22122 2.3361 -0.511041 2.68512 
3166 1 2.54241 3.36829 0.209968 4.22532 
702 1 -1.80082 0.857265 -0.343121 2.02375 
365 1 -1.1644 -2.46379 0.278586 2.73929 
1414 1 -4.3662 -1.60881 -0.175808 4.65649 
460 1 -0.514899 -0.153932 0.729301 0.905923 
2684 1 -0.0941828 -0.979038 -0.827742 1.28551 
3734 2 -2.34093 -4.62963 0.974381 5.27853 
874 1 0.270128 0.255776 -0.283853 0.467935 
652 1 0.6147 2.41549 0.265115 2.50654 
3381 1 1.47918 0.51787 -2.55145 2.99434 
705 1 0.577582 -1.56477 -0.424192 1.72106 
177 1 -0.798451 0.340016 -0.495908 0.99953 
3524 2 -1.59142 -4.65844 1.23885 5.07626 
1762 1 -2.03657 1.12446 0.711219 2.43266 
1848 1 -2.31269 0.810655 -2.60069 3.57341 
875 1 -2.29485 0.34046 -0.937641 2.50228 
3266 1 0.184766 -2.07118 0.93789 2.28113 
2764 1 1.47964 0.398945 1.80894 2.37081 
964 1 0.823203 -0.973408 -1.88706 2.27732 
3827 2 3.66353 -2.49772 2.53928 5.1096 
501 1 0.274492 -0.0236903 -1.61115 1.63454 
3368 1 0.428523 -3.7944 1.57262 4.12967 
957 1 1.30987 -1.68889 -0.729494 2.25837 
2823 1 2.98593 -2.96464 -2.13811 4.71979 
1723 1 -1.20465 2.42722 -3.09881 4.11646 
462 1 1.23403 0.439685 3.28188 3.53368 
3996 2 3.78406 1.96841 6.61114 7.86772 
332 1 -1.88326 -1.48748 2.18526 3.2457 
458 1 4.00196 -0.760964 -0.345386 4.08828 
3291 1 -0.592836 0.343828 -0.220226 0.719842 
4275 2 2.91713 0.781213 4.26111 5.22274 
2961 1 0.126011 -1.45163 2.05085 2.51577 
3278 1 0.073355 -1.46868 -1.72333 2.26545 
2445 1 0.747929 -1.88849 0.561038 2.10726 
4280 2 0.0516512 2.64516 0.752373 2.75056 
2656 1 -1.21568 2.15279 -1.90076 3.11853 
793 1 0.291133 1.82128 -1.44528 2.34321 
227 1 1.38703 -2.59324 -0.893985 3.07375 
3192 1 -0.128642 1.36453 -3.3896 3.65621 
783 1 -1.41745 0.473999 0.72818 1.66255 
4199 2 2.59556 -3.96421 -3.81327 6.08218 
2500 1 1.74837 -2.22309 -0.8325 2.94822 
676 1 -1.00885 -0.600694 -0.155415 1.18438 
1081 1 -1.63578 -1.19376 1.55483 2.5531 
95 1 -0.184279 0.967958 -0.511468 1.11018 
214 1 -1.61212 2.11003 0.800846 2.77354 
3780 2 -1.50075 0.0842559 2.46759 2.88935 
865 1 -1.46429 1.75393 3.33383 4.04164 
3528 2 -2.59318 -0.51494 -0.335075 2.66496 
2869 1 -0.851546 -1.91546 0.24911 2.11096 
813 1 -1.19341 -3.25072 0.00123026 3.46286 
292 1 1.02319 -0.227523 0.681839 1.25043 
1418 1 -1.0637 -0.553872 0.150864 1.20872 
765 1 -0.950647 -1.27544 1.02201 1.89077 
937 1 -0.230204 -2.3215 0.0602528 2.33366 
438 1 1.32464 -1.51001 -2.00994 2.84159 
3617 2 0.133079 1.86496 -5.99375 6.2786 
3647 2 0.590005 1.14807 -5.96771 6.10571 
3758 2 -2.59687 -1.26738 0.869351 3.01757 
866 1 -2.27626 0.462003 -0.968566 2.51653 
3644 2 -1.79623 4.19997 1.22089 4.72829 
830 1 1.32448 -1.13648 0.278053 1.76724 
314 1 0.547959 -2.66203 -0.551585 2.77325 
854 1 0.113873 -1.09909 0.672178 1.29337 
3070 1 0.720602 -1.97666 0.807435 2.25354 
2814 1 0.436984 1.06058 -1.23393 1.68475 
331 1 -1.22178 -0.688738 -1.42064 1.99633 
3559 2 0.304715 -2.67122 -1.10306 2.90603 
968 1 -0.0715451 -2.27249 -0.690983 2.3763 
3482 2 -1.69122 -3.16909 -1.57413 3.92189 
321 1 -1.66279 -0.495889 -0.330028 1.76627 
3961 2 3.45328 -5.39474 -1.0249 6.48682 
691 1 0.347688 -4.86276 2.24539 5.36741 
442 1 0.893159 2.10544 0.798281 2.42237 
3916 2 -1.13854 -4.0502 1.99737 4.65724 
3400 1 2.55129 1.5149 -0.494358 3.00805 
3312 1 0.407912 2.97522 1.71971 3.4606 
308 1 -0.446164 0.31098 -2.77912 2.83183 
3359 1 3.58713 1.03644 -0.16809 3.73764 
3290 1 -0.487336 -0.243745 -3.55304 3.59458 
815 1 2.46833 -1.53971 -0.56052 2.96269 
4301 2 1.85454 -3.20059 0.268191 3.70878 
4140 2 2.18943 -1.92174 -0.433729 2.94531 
4163 2 0.311552 -1.2997 -0.100471 1.34029 
1980 1 1.71283 -1.1939 -0.972493 2.30324 
486 1 1.57483 1.24809 -1.57298 2.55188 
239 1 1.91985 -2.51283 -2.11228 3.80287 
174 1 -0.12391 -0.619915 0.279586 0.691243 
272 1 0.857845 -0.161616 0.371354 0.948642 
3228 1 2.33441 0.614521 0.338768 2.43759 
855 1 -0.113413 -2.45905 0.579213 2.52889 
873 1 -0.576613 -0.792351 -0.478713 1.09063 
3637 2 -3.65244 1.2623 1.73296 4.2352 
3435 1 -0.851631 -1.90014 2.81038 3.49772 
1091 1 -1.6737 -1.18294 1.71292 2.67109 
3331 1 1.41087 -2.02104 1.93996 3.13665 
85 1 0.401685 0.102225 -0.0367608 0.416115 
654 1 -0.129496 1.49546 0.220273 1.51714 
3811 2 -1.79247 1.47062 3.65104 4.32502 
393 1 -1.68203 0.323181 -1.93434 2.58367 
3056 1 -0.440134 2.28534 1.78488 2.93296 
2706 1 2.15132 -3.44251 0.2626 4.06793 
295 1 1.11718 -3.45506 1.79731 4.05165 
3227 1 -0.229803 -1.18706 -2.48248 2.76127 
2740 1 -0.185818 -0.843172 -1.73069 1.9341 
1404 1 -2.33266 -2.35815 -0.0534942 3.31738 
464 1 0.872691 -2.13743 -0.290371 2.32691 
275 1 2.26012 -2.08775 1.14558 3.28317 
4099 2 -1.9282 2.78767 -0.161578 3.39341 
430 1 0.721565 -0.927159 2.62074 2.87203 
268 1 -1.28825 -1.37139 1.87183 2.65406 
31 1 -1.10082 -0.339427 -0.64733 1.32139 
3219 1 2.03895 0.930573 0.348053 2.26813 
3317 1 0.999024 -0.578576 2.4963 2.75033 
647 1 -0.546857 0.105504 0.21046 0.595379 
3991 2 3.07721 0.167895 2.14021 3.75206 
3328 1 -2.61973 0.481795 -0.856891 2.7981 
3588 2 1.33073 -2.87047 -2.97518 4.34305 
2710 1 1.14889 -1.33783 -2.38869 2.9691 
431 1 -0.212258 0.606635 -0.06006 0.645497 
2696 1 -0.689573 -0.858231 -2.08433 2.35723 
3835 2 2.06303 -8.45742 -2.45975 9.04624 
470 1 0.911446 -0.291576 -0.163219 0.970768 
1289 1 -1.53916 1.18791 0.834344 2.11572 
543 1 2.84297 0.609299 -1.41913 3.23537 
3612 2 0.216667 1.85048 -0.858237 2.05129 
840 1 0.778736 1.76358 -0.385287 1.96599 
3436 1 -0.1559 0.387206 0.0482292 0.420189 
3395 1 1.65956 1.15658 1.23418 2.3696 
3371 1 0.7289 -0.757061 -0.438188 1.13862 
92 1 0.792455 -1.44811 -1.77158 2.42146 
3099 1 0.738404 1.76088 1.95546 2.73309 
2847 1 1.31794 0.633504 1.31364 1.96569 
4109 2 -3.00772 0.234769 2.24536 3.76074 
2479 1 0.515188 -2.29156 0.452536 2.39196 
297 1 1.15405 2.13955 2.70092 3.6338 
3211 1 0.826639 0.999731 1.50391 1.98609 
891 1 -0.400127 0.180018 0.165216 0.468833 
834 1 -1.69681 0.963527 -0.513356 2.01769 
1397 1 -1.24003 2.95613 -0.0868707 3.20686 
706 1 -0.884667 -0.462855 2.82557 2.99679 
708 1 0.301039 -0.214256 -0.865331 0.940919 
3526 2 2.26437 3.02223 0.154842 3.77958 
1641 1 -0.95374 1.12436 0.652069 1.61214 
1220 1 -1.858 1.33965 -1.74015 2.87662 
128 1 0.125214 1.98531 -0.359055 2.0214 
960 1 0.610696 1.50116 -1.4777 2.19318 
631 1 0.400212 0.977876 0.0298267 1.05702 
1013 1 -0.775715 1.84135 -0.194167 2.00749 
1553 1 -1.63166 -2.68592 2.37191 3.93731 
266 1 0.943649 1.79383 2.25199 3.02981 
1189 1 -0.457147 -0.0234479 -1.49997 1.56826 
3002 1 1.5481 0.904717 -1.90201 2.61395 
1478 1 -0.982498 0.899484 -0.971975 1.64897 
123 1 -0.685915 1.06578 -0.458598 1.34784 
573 1 0.670448 2.09197 0.390437 2.23121 
987 1 -2.01947 2.53081 -0.892818 3.35863 
3173 1 -0.219308 -0.185611 1.72881 1.75252 
565 1 -0.294585 -0.553924 -0.610433 0.875352 
3607 2 0.847067 -1.32151 2.64701 3.07743 
2057 1 -1.23186 0.443415 -0.364482 1.35902 
397 1 -1.90327 -0.581912 -0.537374 2.06152 
3713 2 -1.47666 -1.15089 3.56528 4.02695 
1637 1 -1.54086 2.94292 -1.62261 3.69701 
3459 2 -0.994329 -3.10171 -2.412 4.05302 
562 1 2.36623 -1.04178 -0.804485 2.70768 
1108 1 1.46432 0.987101 -2.84395 3.34763 
555 1 -0.945635 1.07475 -0.324589 1.46788 
3418 1 0.740388 1.13052 0.0899406 1.35437 
611 1 -1.00446 1.31536 -0.55275 1.7449 
115 1 1.15767 1.23102 1.20945 2.07807 
535 1 -0.849652 -1.59582 2.75672 3.29668 
664 1 -0.390505 -0.873658 1.34908 1.65402 
799 1 -1.55431 -0.154541 -1.76083 2.35378 
1405 1 0.20187 0.68772 -0.189511 0.741367 
1341 1 0.00210127 0.476639 0.0497014 0.479228 
3753 2 -2.92964 3.23241 -1.84404 4.73621 
1129 1 -1.33265 0.521169 -0.676519 1.58279 
1118 1 0.841096 1.7922 -0.108416 1.98272 
52 1 1.40713 0.0313578 -0.351468 1.4507 
3815 2 -1.32723 -2.66776 2.40533 3.82937 
226 1 3.25562 0.600376 0.919969 3.43597 
739 1 -1.10164 -0.182591 0.0999786 1.12114 
1320 1 2.25003 -2.5967 1.1858 3.63477 
243 1 -0.715049 1.58383 -1.6909 2.42465 
1412 1 0.744518 0.169763 -0.778874 1.09077 
3884 2 0.809708 -0.633072 3.20014 3.36114 
907 1 0.130901 0.21638 1.83785 1.85517 
675 1 0.405188 0.283881 -4.13369 4.16319 
3251 1 1.96943 1.61236 -2.27849 3.41612 
1352 1 0.204103 1.59695 -0.272347 1.63281 
591 1 -0.863332 -0.13021 1.92851 2.11694 
196 1 -0.954468 0.783832 2.04601 2.38988 
3533 2 -0.503689 -1.30761 -0.583463 1.51789 
1544 1 -0.340976 1.41998 0.256891 1.48277 
3600 2 -0.5354 -0.110155 0.756418 0.93325 
569 1 2.96752 -1.22684 0.334416 3.22849 
351 1 1.09988 1.86927 -1.12384 2.44273 
2987 1 -0.227136 0.392534 -1.62861 1.69058 
3594 2 -0.942247 -0.323269 -1.06858 1.46089 
975 1 -0.542477 0.528606 -1.47905 1.66172 
828 1 -1.77818 -0.490614 -0.76981 1.9988 
536 1 1.24821 -0.126491 0.184605 1.26811 
1484 1 -1.24188 0.536212 -1.10625 1.74745 
627 1 0.359979 1.1266 0.676144 1.36235 
3704 2 -3.34534 -0.277154 2.28419 4.06026 
1154 1 -1.86532 1.65928 0.232494 2.50732 
1467 1 -0.645256 0.0695858 0.243488 0.69317 
554 1 0.655142 1.45219 0.497645 1.66905 
3957 2 -0.64219 1.34028 0.347495 1.52627 
77 1 -0.352295 0.663936 -0.477625 0.890533 
4273 2 0.906128 -0.984742 -1.968 2.37988 
1709 1 -0.0466786 3.05006 -0.155753 3.05439 
934 1 0.259509 0.328024 0.654655 0.776864 
247 1 1.04788 0.480315 -2.31719 2.58807 
158 1 0.92633 -0.0259175 -0.724983 1.17659 
1454 1 1.1256 -1.80749 -0.578245 2.20644 
3841 2 0.698088 -1.06154 -2.2857 2.61508 
28 1 2.62324 -0.943244 -1.67405 3.25169 
624 1 -0.562027 0.593198 0.541093 0.980072 
655 1 -0.752234 1.68844 1.06213 2.13186 