ITEM: TIMESTEP
2
ITEM: NUMBER OF ATOMS
4320
ITEM: BOX BOUNDS pp pp pp
0.0000000000000000e+00 1.9309999999999999e+01
0.0000000000000000e+00 1.9309999999999999e+01
0.0000000000000000e+00 9.6549999999999994e+00
ITEM: ATOMS id type c_displacement[1] c_displacement[2] c_displacement[3] c_displacement[4] 
3196 1 -0.00170623 0.00224807 0.00201353 0.00346689 
381 1 -0.00139113 0.000785361 0.00334364 0.00370567 
327 1 -0.00291622 0.000210754 0.00195992 0.00351995 
484 1 -0.000302849 -0.00097442 0.0016108 0.0019068 
728 1 0.00362155 0.00926943 -0.0049554 0.0111173 
817 1 0.00407111 0.00123357 0.00311635 0.00527326 
3586 2 0.00155929 -0.00162834 -0.00385814 0.00446857 
2478 1 -0.00683017 0.00207692 0.00201453 0.00741776 
3679 2 0.000612621 -0.00164044 0.00576455 0.00602464 
2945 1 0.00769717 -0.000724614 -0.00428042 0.00883705 
3230 1 -0.00350413 -0.0011859 -0.000961509 0.00382228 
3651 2 -0.000867942 -0.00889578 -0.000155814 0.00893937 
66 1 0.00698792 0.00441184 0.00158942 0.00841556 
400 1 0.00427419 0.000738543 0.00342647 0.00552765 
677 1 -0.00315185 -0.00103442 0.00264643 0.00424356 
623 1 0.00347693 0.000588485 -0.00192914 0.00401957 
87 1 0.00577896 0.00175905 -0.00541864 0.00811495 
4053 2 -0.00578425 0.00316698 0.00314982 0.00730812 
3877 2 0.00293759 0.00312816 0.00123432 0.00446524 
727 1 0.00534653 0.00339875 -0.000460946 0.00635211 
688 1 -0.000360694 -0.00184789 0.0016169 0.00248177 
58 1 0.00292945 0.00400106 -0.000802792 0.00502341 
3514 2 -0.000790086 -0.00147235 -0.00149018 0.0022389 
18 1 0.00670141 -0.000139578 0.00148529 0.00686546 
3618 2 -0.00578972 0.00401118 -0.00167214 0.00723923 
190 1 0.00668998 0.00248217 -0.000953894 0.00719909 
298 1 -0.0037316 -0.0054316 -0.000460386 0.00660599 
559 1 -0.00526581 0.00145597 0.000429543 0.00548025 
7 1 0.00161798 0.000690489 -0.0038021 0.00418935 
180 1 -0.000895505 0.00141903 0.00128934 0.00211612 
106 1 0.00207727 -0.00386163 -0.0041451 0.00603399 
217 1 -0.00257644 0.00231951 -0.00342777 0.00487522 
775 1 -0.00497071 0.000744196 -0.0032953 0.00601006 
3627 2 -0.000275646 -0.00144976 0.000484571 0.00155326 
608 1 0.00544494 0.00134473 0.00288392 0.00630656 
3118 1 0.00133574 -0.00260817 -0.00460224 0.00545595 
562 1 -0.0024046 -0.000423944 0.00082688 0.0025779 
70 1 -0.00518994 0.000965873 0.00178457 0.00557253 
121 1 -0.00160063 -0.00181656 0.00262036 0.00356766 
1118 1 0.000115698 0.00220425 0.00152687 0.00268393 
210 1 -0.00570503 0.00390769 0.000809384 0.00696222 
232 1 0.000604783 -0.00145222 -0.00349711 0.00383464 
4214 2 -0.00808632 0.00123993 -0.000779876 0.00821792 
3712 2 -0.00128286 -0.00678662 -3.35361e-05 0.00690689 
65 1 -0.00409956 -0.00081091 -0.00494464 0.00647406 
226 1 -0.00010525 -0.00332633 0.00239113 0.00409793 
532 1 0.00103782 0.00408655 0.00647333 0.00772535 
3578 2 -0.00251699 -0.00336467 -0.00250403 0.00489146 
473 1 -0.00336659 0.00109871 0.00247559 0.00432083 
246 1 0.00434754 0.00344149 0.00161813 0.0057761 
221 1 -0.00349867 -0.00514013 0.000153299 0.00621973 
4034 2 -0.00108778 -0.00267899 -0.001983 0.00350607 
4071 2 0.00169832 -0.00451009 -0.00415987 0.0063663 
2838 1 0.00554824 0.00697003 0.000978149 0.0089622 
536 1 0.000709629 0.00341137 0.00883405 0.00949639 
894 1 0.0025922 1.98153e-05 -4.10045e-05 0.0025926 
289 1 0.0026985 -0.00300426 0.00147844 0.00430038 
351 1 0.00907837 -9.649e-05 0.0029283 0.00953945 
197 1 0.00121615 0.000777541 -0.00263134 0.00300126 
3135 1 -0.0077059 -0.00226934 -0.00175954 0.00822355 
303 1 0.00176687 0.00233535 -0.000917472 0.00306879 
1415 1 0.000984069 5.62406e-06 0.000971645 0.00138294 
527 1 0.00130971 0.00634832 -0.00271062 0.00702595 
3002 1 0.000496653 0.00259174 0.00293967 0.00395037 
3189 1 -0.00260088 -0.0057537 -0.0024832 0.00678498 
712 1 -0.00124233 -0.00381967 0.00270151 0.0048406 
718 1 0.00145623 0.00192701 -0.000264632 0.00242982 
3469 2 0.00291347 -0.00471779 0.00543768 0.00776622 
110 1 -0.00354279 -0.000660616 -0.00485788 0.0060487 
4177 2 -0.00982575 -0.00426584 0.00372489 0.011341 
93 1 0.00264321 -0.00258393 -0.00357184 0.00514016 
569 1 -0.00125928 -0.00432767 -0.00391293 0.00596871 
639 1 -0.00224693 -0.00271774 -0.000327282 0.00354146 
21 1 0.00433274 -0.00751376 0.00358536 0.00938531 
96 1 -0.00144904 0.00245204 -0.000984659 0.0030136 
167 1 0.0014501 0.000236725 -0.0012735 0.00194438 
1178 1 0.00408404 -0.00222149 -0.00167758 0.00494254 
3353 1 0.00338571 -0.00673305 0.00562403 0.00940355 
823 1 0.00352405 0.00334248 -0.000567858 0.00489014 
2596 1 -0.000646226 0.00081943 -0.00440382 0.00452578 
50 1 -0.000541488 -0.00389353 -0.000481511 0.00396038 
2495 1 0.00148405 0.000975989 0.000316864 0.00180426 
28 1 -0.00258216 0.00140215 0.00421137 0.0051351 
3055 1 -0.000664173 0.0001947 -0.00629119 0.00632915 
12 1 0.00414295 0.00071418 0.00068985 0.00426028 
3835 2 0.00375153 -0.00887071 0.00202086 0.0098411 
4170 2 -0.00144073 -0.0028474 -0.00356387 0.00478378 
738 1 -0.00279079 -0.00221795 0.000657576 0.00362494 
2453 1 0.00132875 0.000698241 9.3509e-05 0.00150395 
3167 1 -0.0014071 -0.00205205 0.00748778 0.00789036 
339 1 0.00016656 -0.00496065 -0.000915359 0.00504715 
390 1 -0.00197236 -5.53272e-05 0.00335017 0.00388804 
203 1 0.00254465 -0.00366077 0.00146281 0.00469215 
3582 2 -0.00231906 -0.000129205 -0.0027536 0.00360236 
3632 2 -0.000775429 -0.00576063 0.00491749 0.00761366 
231 1 0.00127916 -0.000819177 -0.00114792 0.00190395 
323 1 0.0057543 0.0011895 0.00221733 0.0062804 
3244 1 -0.000873389 0.000641749 0.0003042 0.00112569 
118 1 -0.000692706 0.00242945 -0.00441574 0.00508732 
553 1 0.00153646 -0.000704909 -0.000653827 0.00181248 
2735 1 -0.00725342 -0.00200149 -0.00538112 0.00925065 
2768 1 0.00335496 0.00296724 0.00224773 0.00501125 
2960 1 0.00061581 -0.000132848 0.00611644 0.0061488 
29 1 -0.00331837 -0.0063049 0.00650675 0.00964889 
753 1 0.00572224 0.000141508 0.00118271 0.0058449 
3467 2 0.0012165 -0.00164247 0.00230928 0.00308389 
3916 2 -0.00597245 -0.00268836 0.00343546 0.00739593 
3251 1 0.00436884 -0.00118878 0.00560648 0.00720643 
73 1 -0.00417371 0.00237615 0.00219639 0.00528111 
725 1 -0.00410303 0.00511359 0.00464681 0.00803595 
1133 1 -0.00374528 0.00393636 -0.00216193 0.00584774 
546 1 -0.00370767 0.000606201 -0.000546108 0.00379639 
4187 2 -0.000513983 0.00227624 0.00131641 0.00267925 
437 1 -0.00602894 -0.00329295 0.00243429 0.00728817 
53 1 -0.00134857 0.00155141 -0.00305597 0.003683 
593 1 -0.00716548 -0.00043793 -0.000677128 0.00721071 
609 1 0.00153776 0.00627309 -0.00413941 0.00767145 
3040 1 0.00278273 -0.00245885 -0.000497585 0.00374662 
737 1 0.00273514 0.00287507 -0.00200926 0.00444794 
233 1 -0.00247091 -0.000698326 0.000986482 0.00275067 
610 1 -0.0061985 -0.00213879 -0.0020375 0.00686638 
247 1 0.00120686 0.00163313 -0.00425203 0.00471204 
89 1 -0.00127246 -0.000108299 -0.00173091 0.00215103 
3149 1 -0.00092596 -0.00126393 0.00372391 0.0040401 
550 1 0.000167184 0.00171419 -0.000674285 0.00184961 
147 1 -0.0038195 0.00126103 0.00781632 0.00879054 
3554 2 -0.00291192 -0.00463592 -0.00325125 0.00636723 
3786 2 -0.00194732 -0.00646467 -0.00263747 0.00724846 
5 1 -6.18085e-05 5.70856e-05 -0.00530964 0.00531031 
2591 1 0.000772092 0.0101793 0.0039995 0.010964 
3232 1 -0.00203879 -0.000675195 -0.000541754 0.00221496 
1215 1 0.00722254 0.00212689 0.00410438 0.00857524 
859 1 0.00168899 -0.00162654 0.00333615 0.00407777 
3152 1 0.00378553 0.0034729 7.03362e-05 0.00513773 
2936 1 -0.00352505 -0.00989514 -0.00287356 0.0108902 
59 1 -0.00134574 -0.00453058 -0.00352434 0.0058956 
2461 1 -0.00433127 0.000438258 -0.00464111 0.00636332 
988 1 -0.00193134 0.00128181 -0.00391477 0.00454957 
23 1 -0.00142528 -0.00207361 -0.00094184 0.0026867 
3743 2 -0.00144955 -0.00117932 0.000383169 0.00190757 
3023 1 -0.00230036 -0.000807194 -0.000610502 0.00251315 
151 1 -0.00023724 -0.00348693 -0.00416983 0.00544082 
43 1 0.00625886 -0.00235023 -0.00724032 0.0098549 
3730 2 -0.000396619 -0.000174513 0.00496626 0.00498513 
1454 1 5.00206e-05 0.000743372 -0.000345528 0.000821275 
424 1 -0.00239104 -0.0052371 0.00310412 0.00654063 
3478 2 0.00081187 -0.00256508 -0.00124944 0.00296646 
3611 2 0.00331564 0.00214717 0.00208645 0.00446734 
3346 1 -0.00355135 -0.00463354 0.00140196 0.00600394 
3199 1 0.0011441 0.00335357 0.00352831 0.00500044 
4289 2 -0.000628612 -0.000195271 -0.00659545 0.00662821 
3006 1 0.00513545 -0.000955159 0.00197248 0.00558354 
3460 2 0.00223841 0.00637392 -0.0027419 0.00729077 
2500 1 -0.00203707 -0.00505806 -0.00341644 0.00643472 
3188 1 -0.00705011 0.00616112 -0.00127477 0.00944926 
3491 2 -0.00365185 0.00166198 0.00143092 0.00425977 
717 1 -0.00257827 0.00188569 0.00284801 0.00427954 
2931 1 -0.000304512 -0.00166243 0.0019257 0.00256217 
691 1 0.00274658 -0.00278799 0.0019263 0.00436203 
825 1 -0.000224316 0.000834945 0.00010156 0.000870497 
3634 2 0.00285223 0.000740901 0.00356717 0.00462697 
140 1 -0.0017262 -5.19103e-06 -0.000945606 0.00196824 
174 1 -0.00181829 -0.000857345 -0.00422938 0.00468283 
3493 2 0.00287615 0.00524947 0.000825301 0.00604237 
529 1 0.00555199 0.000312754 -0.00201333 0.00591404 
1480 1 0.00178342 0.00114597 -0.00160762 0.0026605 
2968 1 -0.00657158 -0.000426083 -0.000646031 0.006617 
3464 2 0.00420752 -0.00187772 -0.00180132 0.00494711 
98 1 -0.00390969 -0.00191637 -0.00309247 0.00534055 
216 1 -0.000979929 -0.00297993 0.00600844 0.00677802 
40 1 -0.00146624 0.00148282 -0.00371765 0.00426258 
4228 2 -0.00397944 0.000196189 0.00395189 0.00561176 
1130 1 0.0056084 0.00197623 -0.00102572 0.00603421 
2994 1 -0.000899935 -0.00339187 -0.00231026 0.00420142 
3041 1 -0.00291168 0.0032724 0.000900633 0.00447187 
604 1 0.000110654 0.0039382 -0.00052011 0.00397394 
721 1 0.000666495 0.00129714 0.00189511 0.00239128 
3164 1 0.00170693 0.00302064 0.00182009 0.00391798 
241 1 -0.00050453 -7.60467e-05 0.00495866 0.00498484 
2494 1 0.00165917 0.00136348 -0.00320411 0.00385723 
3010 1 0.00153443 -0.000178122 0.00203536 0.00255518 
64 1 0.00136978 0.000724067 0.00241821 0.00287198 
193 1 0.00151053 -0.00347931 0.00429023 0.00572655 
44 1 -0.000926426 0.00446966 -0.000525681 0.00459483 
2996 1 0.00180613 -1.00404e-05 0.00382439 0.00422944 
4212 2 0.00475314 -0.00184575 0.000125748 0.00510049 
3279 1 0.00644433 -0.00124811 -0.00524784 0.00840398 
257 1 0.00613534 -0.00731819 0.00684968 0.0117523 
330 1 0.000489144 0.00760381 -0.0044913 0.00884472 
2981 1 -0.00258013 -0.000519665 -0.00141305 0.00298728 
103 1 0.00530027 0.00114097 -0.00158253 0.00564793 
3841 2 -0.0034682 -0.00158121 0.00356346 0.00521794 
600 1 -0.00548515 -0.00282316 -0.00144063 0.00633502 
338 1 -0.00116559 0.00103126 -0.00521882 0.00544593 
4101 2 0.00171915 -0.00174069 0.00468475 0.00528511 
949 1 0.00448313 -0.00239628 0.00583375 0.00773778 
237 1 0.00241377 0.0038406 0.00330383 0.00561175 
3608 2 0.00165668 0.001422 0.00513052 0.00557574 
4217 2 0.00084149 -0.00633659 -0.00601288 0.00877583 
479 1 0.00197154 0.00218795 0.00184775 0.00347682 
3335 1 0.00298522 0.00131294 -0.00821703 0.00884053 
1457 1 0.000407091 0.00536832 -0.00400414 0.00670953 
3037 1 -0.00252497 0.00221504 0.00172188 0.00377449 
4253 2 -0.0033156 0.001604 -0.00420677 0.00559133 
387 1 -0.00692522 -0.00422421 0.00299596 0.00864745 
3736 2 0.00330368 -0.00375478 0.00475578 0.00690146 
78 1 -0.00209591 -0.00159878 -0.00175779 0.0031684 
3394 1 -0.00246562 -0.000753728 -0.00242162 0.00353718 
508 1 -0.000932847 0.00123086 0.00027334 0.00156842 
3537 2 -0.000201697 -0.00548262 -0.00501921 0.00743588 
747 1 -0.00281775 -0.000671736 -0.000217017 0.00290483 
497 1 -0.00273495 0.0036633 -0.00141346 0.00478514 
958 1 0.00409422 0.0039265 -0.00367297 0.00675802 
3130 1 -0.000960406 0.0014821 0.000235111 0.00178165 
4163 2 0.0010872 0.00681739 -0.00321123 0.00761385 
3643 2 -0.00347788 -0.000188912 0.00385253 0.00519358 
133 1 0.00188121 -0.000922805 0.00394073 0.00446317 
4204 2 0.00135905 -0.00329103 -0.00025592 0.00356978 
86 1 -0.00537504 -0.0016733 -0.0016376 0.00586283 
759 1 -0.00049876 -0.00568335 -0.00346369 0.00667431 
3411 1 0.00207977 0.000309596 0.00143744 0.00254706 
835 1 -0.00100439 0.00784499 -0.000273447 0.00791375 
3057 1 -0.00249392 -0.0063745 -0.00344583 0.00766339 
3620 2 0.0012663 0.00152343 0.00202788 0.0028349 
704 1 -0.00178961 -0.000853691 0.000105327 0.0019856 
3599 2 -0.00217849 -0.00277131 -0.00256042 0.0043568 
157 1 8.56853e-05 0.00696463 -0.00278122 0.00749991 
54 1 0.00363315 -0.00732493 -0.000770915 0.00821271 
493 1 -0.00552943 0.00492649 0.00210669 0.00769955 
204 1 0.00418803 0.00129348 -0.000814104 0.00445819 
254 1 0.00175358 0.000848376 0.0016743 0.00256867 
178 1 0.00540356 0.00350284 -0.00186047 0.00670296 
143 1 -0.00330954 -0.00022604 0.00244219 0.00411928 
67 1 -0.00336808 -0.00226008 -0.00298587 0.0050366 
2988 1 0.000808959 -0.00041422 0.00234667 0.00251652 
3030 1 0.00284843 -0.00455786 0.00989169 0.0112576 
4050 2 0.00345961 0.000361111 -0.00137281 0.0037395 
3479 2 0.0055987 -0.00287172 0.00259525 0.00680643 
2934 1 0.00487124 0.00138928 -0.00031552 0.00507529 
3216 1 0.0036056 -0.00310414 -0.00536959 0.00717416 
234 1 -0.000910389 -0.00294517 0.00196993 0.00365834 
1036 1 -0.00179376 -0.00521982 -0.00192545 0.00584564 
3369 1 0.00443331 -0.0019524 0.0011758 0.00498484 
3607 2 -0.00600834 0.000388286 -0.00233573 0.00645806 
3139 1 -0.000659493 -0.00460603 0.00232709 0.00520248 
644 1 -0.00503754 -0.0098297 0.000811612 0.0110751 
1278 1 0.00125947 0.00138275 -0.00466612 0.00502703 
4269 2 0.00393638 0.0101969 -0.000485731 0.0109411 
3007 1 0.00243041 0.00134204 0.00136391 0.00309326 
4089 2 -0.000798302 0.00226058 0.00285444 0.00372764 
214 1 0.00284122 -0.00236448 0.00705324 0.00796314 
640 1 0.00143363 0.000866466 -0.00524047 0.00550169 
199 1 -0.00522989 -0.00711731 -0.00144209 0.00894916 
245 1 -0.00588068 -0.000792555 0.00625098 0.00861889 
2758 1 -0.00597607 -0.00635829 -0.000675508 0.008752 
3056 1 -0.000248436 0.00163847 0.000191075 0.00166817 
3468 2 -0.00193229 0.0100266 -0.00345933 0.0107812 
563 1 -0.00144393 1.32746e-05 -0.00727688 0.00741877 
3644 2 -0.00192095 -0.00308144 0.00212813 0.00420884 
1149 1 0.000941991 -0.00139832 -0.00168138 0.00238111 
2684 1 -0.00163073 0.00609414 -0.00435374 0.00766504 
249 1 -0.00226222 0.00312495 -0.00209413 0.00438958 
3096 1 -0.00223067 0.00117328 0.000594212 0.00258951 
240 1 -0.00400728 0.00116731 0.00596753 0.00728233 
181 1 0.00203327 -0.00180255 0.00680492 0.00732737 
46 1 -0.00337901 0.00296996 0.00213081 0.00497782 
3211 1 -0.00135171 -0.00184947 -0.000524842 0.00235013 
1102 1 -0.00625572 -0.000996396 0.00101903 0.00641602 
2939 1 0.00663311 0.00546922 -0.00198255 0.00882276 
3512 2 0.00245749 -0.002855 0.00224308 0.00438426 
3603 2 0.00114252 0.000761357 -0.00283137 0.0031467 
3701 2 -0.000555454 -0.00295802 0.0028448 0.00414141 
3513 2 -0.0008954 -0.00109746 0.00195829 0.00241683 
312 1 -0.00303799 -0.00199416 -0.00215192 0.00422337 
587 1 0.00196561 -0.00124101 -0.00136537 0.00269591 
134 1 0.00116543 0.000408355 -0.00131805 0.00180617 
135 1 -0.00403188 0.00268752 0.00324059 0.00582925 
1179 1 -0.00362631 0.00105295 0.00193641 0.00424364 
3003 1 -0.00166668 0.000292648 0.000309251 0.00172021 
191 1 0.00392061 -0.000948245 0.0015627 0.00432578 
685 1 -0.00522379 -0.000862898 -0.00504843 0.00731569 
602 1 0.000337242 5.06589e-06 0.00379608 0.00381104 
195 1 -0.00164553 0.000212893 -0.00363387 0.00399476 
3092 1 0.000211809 -0.00540236 -0.000689909 0.00545036 
4195 2 -0.00143262 0.00611447 0.00169225 0.00650406 
2995 1 -0.00618882 -0.000946781 -0.00019386 0.00626383 
540 1 -0.00271465 0.00194085 0.00800916 0.00867657 
674 1 0.00691158 -0.00223716 -0.00320822 0.0079415 
920 1 0.00084601 0.000708419 -0.0013259 0.001725 
902 1 0.00028 0.00362619 0.00319247 0.00483937 
2004 1 -0.00133971 0.00330801 -0.00581156 0.00681997 
427 1 -0.000847191 0.000498171 -0.000409794 0.00106482 
4173 2 0.000897154 0.00523449 -0.0059645 0.00798624 
2950 1 -0.00117023 0.00149396 -0.00312846 0.00365905 
6 1 -0.00631325 0.00481344 0.000128075 0.00793995 
182 1 -0.000913637 0.000378178 -0.00149689 0.001794 
690 1 -0.000935527 0.0016089 0.000812125 0.0020306 
154 1 0.00210625 -0.00285755 0.00147674 0.00384482 
710 1 -0.00106671 -0.0046653 0.00140567 0.00498787 
3115 1 0.00100806 0.006895 5.30956e-05 0.0069685 
742 1 0.0046114 -0.00405986 -0.00374656 0.00719612 
2926 1 -0.0078084 0.00232258 0.00568338 0.00993309 
215 1 0.00219973 -0.00361098 0.00182325 0.00460458 
2977 1 0.00387025 0.00630991 -0.000545418 0.00742235 
95 1 -0.00247319 0.00100936 0.0045547 0.00528023 
3408 1 0.00390848 -0.00386823 -0.00294489 0.00623793 
3518 2 -0.00537151 -0.00327422 -0.00186216 0.00656059 
80 1 0.000599691 0.000217715 0.00194285 0.00204492 
354 1 -0.000724068 0.000513159 -0.00438524 0.00447414 
580 1 0.0010908 -0.00116311 0.00436258 0.00464486 
446 1 0.000378373 -0.00385923 0.0095322 0.0102908 
205 1 -0.00101658 0.00127238 0.00516841 0.00541893 
694 1 0.00280917 -0.00253367 0.00195826 0.00425978 
861 1 -0.000777708 -0.0023833 0.000538976 0.00256427 
3549 2 0.00122957 -0.00220844 0.00436149 0.00504099 
4014 2 -0.00476496 -0.00442098 0.00144941 0.00665963 
3401 1 0.00291365 0.00468205 -0.00598764 0.00814019 
1077 1 0.0044616 0.0005737 0.000399248 0.00451602 
3234 1 -0.00255864 -0.00509989 -0.00290611 0.0064032 
3393 1 -0.0025988 -0.00244934 0.00046575 0.00360139 
3341 1 0.00114043 -0.00172734 -0.00154556 0.00258322 
512 1 0.00383245 0.00162656 0.00414986 0.00587833 
300 1 -0.00883714 -0.00295645 -0.0010357 0.00937594 
393 1 -0.00265859 -0.00211052 0.000980321 0.00353319 
2740 1 0.00564067 -0.00223974 -0.000878381 0.00613231 
3197 1 0.00334293 0.000200202 -0.00332042 0.00471598 
4006 2 -0.000257512 0.00255325 0.000630971 0.00264264 
286 1 -0.00239807 0.000629666 -0.000608678 0.00255298 
886 1 -0.00329155 -0.00489814 -0.000629789 0.00593487 
277 1 -0.000235039 0.000910995 0.00274896 0.0029055 
364 1 0.000144073 0.00393791 -0.00248298 0.00465758 
1367 1 -0.0045154 -0.00145472 0.00395686 0.00617752 
411 1 -0.000985197 -0.00340643 0.00410884 0.00542743 
3658 2 0.00241123 -0.00496971 0.00312676 0.00634734 
334 1 0.00149054 0.00100105 -0.0026029 0.00316211 
356 1 -7.16996e-05 0.00415985 0.00426298 0.00595672 
4154 2 0.0078842 -0.00102671 5.70081e-05 0.00795098 
357 1 0.00576342 0.000559402 -0.000530662 0.00581477 
265 1 -0.00212101 -0.0050944 -0.00128667 0.00566631 
3389 1 0.000971699 -0.000865305 -0.000650873 0.00145485 
362 1 0.000932097 -0.0074098 0.000620318 0.00749391 
478 1 0.00378898 -0.00112085 0.0038161 0.0054932 
4159 2 0.00269188 -0.000486976 -0.0061237 0.00670694 
2696 1 0.00191855 0.000696032 -0.00340692 0.00397144 
780 1 -0.00509549 -0.00356493 -0.000251298 0.00622382 
966 1 0.00394019 -0.00156982 -0.00129965 0.00443605 
3612 2 0.00329922 -0.00383866 0.00522195 0.00727248 
433 1 -0.00182895 0.00551969 -0.00449829 0.00735165 
924 1 0.000770165 0.000260123 0.00508605 0.00515061 
2710 1 -0.000657918 0.00323132 0.00242205 0.00409153 
3313 1 -0.00522693 0.00268541 -0.000238596 0.00588125 
3482 2 0.00168152 0.00901207 -0.00232791 0.00945855 
3290 1 0.00518761 0.00604343 0.00464457 0.00921989 
3192 1 0.000831546 0.00100017 0.00421683 0.00441288 
626 1 -3.25295e-05 0.00277535 0.0050672 0.00577755 
3333 1 0.000515516 0.00446665 -0.00562921 0.00720449 
3303 1 0.000354298 -0.00123045 0.00558071 0.00572572 
3526 2 0.0034516 0.000215267 -0.00184098 0.00391779 
3249 1 -0.00130725 0.0027466 -0.00156293 0.00341986 
92 1 -0.00256202 0.00650016 0.00395769 0.00802991 
3379 1 0.00400491 0.00319785 -0.00545377 0.00748392 
1449 1 0.00223598 0.00155272 0.00103924 0.00291386 
903 1 -0.000247028 0.0038479 -0.00469748 0.00607731 
4304 2 0.000414331 -0.00323941 -0.000333369 0.00328277 
100 1 0.00285437 7.20588e-07 -0.00403998 0.0049466 
3808 2 -0.00544359 -0.00196446 0.00114867 0.0059001 
462 1 -0.00126746 -0.0019108 0.0017275 0.00287086 
2966 1 0.00753627 0.0017165 0.00264626 0.00816973 
3022 1 -0.0015067 0.000280578 -0.0063892 0.00657045 
750 1 0.00422714 -0.00537154 0.0067778 0.00962605 
3162 1 -0.00554039 3.88169e-05 0.00119313 0.00566754 
449 1 0.00640317 -0.00282345 0.00184093 0.00723612 
3631 2 -0.00272668 -0.00884645 0.00124899 0.00934101 
287 1 -0.0018563 -0.000170582 -0.000980023 0.00210604 
3647 2 -0.000742263 0.000496507 0.00502741 0.00510611 
2890 1 0.000979837 -0.000614944 -0.000687753 0.00134582 
1285 1 -0.00598791 0.00610526 0.00220004 0.00883003 
943 1 0.00256839 0.000984226 -0.00263176 0.00380677 
3305 1 -0.000118232 8.8837e-05 -0.000929172 0.000940867 
3209 1 0.00344297 0.00772201 -0.00242147 0.00879471 
3409 1 -0.00447053 0.0034685 -0.000452335 0.00567633 
4318 2 0.00096846 0.00112854 -0.000523326 0.00157651 
763 1 0.00194737 -0.003482 -0.00728563 0.00830645 
3883 2 0.000973422 -0.0049346 0.00107748 0.00514381 
3531 2 0.00493859 0.00268983 -0.00250595 0.00615668 
3227 1 0.00292699 -0.00608472 -0.00358039 0.00764266 
373 1 -0.00399033 0.00207622 0.00392026 0.00596673 
4297 2 -0.00278863 -0.000712589 0.00309106 0.00422361 
3404 1 0.00188128 0.000225299 0.000926744 0.00210922 
3221 1 -0.0034622 -0.00403689 -0.000481877 0.00533999 
398 1 0.00101298 0.00292677 0.00449508 0.00545874 
2732 1 0.00642553 -0.00212641 0.00252407 0.00722357 
4123 2 -0.00520327 0.00202219 0.00479756 0.0073607 
1145 1 -0.000282295 0.00184667 -0.00113976 0.00218836 
836 1 0.00570063 0.00100518 -0.00314248 0.00658656 
309 1 0.00363152 -0.00130845 0.000495786 0.00389176 
394 1 -9.77196e-05 0.00569259 0.0093955 0.0109859 
412 1 0.00353368 0.00341167 0.000191514 0.00491559 
1212 1 -0.00469324 -0.00275144 0.00180579 0.00573217 
3573 2 -0.00169064 0.00337174 0.00397189 0.00547749 
3360 1 -0.0036258 -0.00372828 0.00118476 0.00533387 
3319 1 0.000844318 0.00251284 0.00240585 0.00357985 
3588 2 -0.000434476 -0.000803214 0.00178156 0.00200197 
2365 1 0.00214939 -0.00115893 0.000477764 0.00248822 
306 1 -0.00335326 0.00189522 -0.00248267 0.00458256 
3093 1 0.00500781 -0.00234105 0.000708829 0.00557325 
2745 1 0.00112933 -0.00689277 0.00432758 0.00821667 
355 1 -0.00325812 0.00205321 0.00307826 0.00493018 
3097 1 -0.000379811 -0.00250507 0.00127187 0.00283501 
228 1 0.00148019 0.00873158 -0.00327815 0.0094434 
3324 1 0.0036786 0.00714732 0.000989404 0.00809909 
951 1 -0.00344804 0.000592499 -0.000588398 0.00354771 
2737 1 0.00185546 0.00608085 0.00388536 0.00745087 
2959 1 0.000441243 0.00288267 0.00218233 0.00364239 
4284 2 0.00246263 -0.00122116 -0.00158812 0.00317457 
4225 2 -0.00194083 -0.00211622 -0.000972413 0.00303163 
3483 2 -0.00160013 0.000621371 -0.00129016 0.00214734 
3337 1 -0.00431676 -0.000562131 0.00716424 0.00838312 
4116 2 -0.00730777 -0.00510783 0.0022759 0.0092018 
716 1 0.00230936 -0.00224607 0.00441934 0.00546887 
389 1 0.00329284 -0.00127184 -0.0089687 0.00963836 
601 1 0.00199981 -0.00114827 -0.00346735 0.00416417 
3094 1 0.00108607 -0.00395435 0.00113092 0.00425387 
3617 2 -0.00167561 0.00260472 0.00256406 0.00402078 
206 1 -0.00133833 0.00185914 0.00470302 0.00523125 
71 1 -0.00295108 0.0061036 -0.00114001 0.00687477 
3561 2 -0.00222445 -0.000272096 -0.00528955 0.0057447 
3676 2 0.00499003 -0.00439641 0.00299236 0.00729267 
353 1 -0.000594168 0.0019919 0.00315859 0.00378119 
962 1 0.000339255 0.0017772 -0.00194439 0.00265597 
1324 1 0.00809019 0.00488009 -0.00412843 0.0103107 
4185 2 -0.0105326 0.0019672 -0.000602975 0.0107317 
388 1 0.000994136 0.000450747 -0.00321806 0.00339814 
1313 1 0.0062381 -0.00206 0.00460987 0.00802548 
444 1 -0.00355859 0.00669409 -0.0030607 0.00817571 
3668 2 0.00418446 0.000255402 -0.00038839 0.0042102 
838 1 -0.00582919 -0.00195043 -0.00299416 0.0068373 
460 1 -0.000708862 -0.0060404 0.00363177 0.00708369 
499 1 -0.00228957 -0.000985067 0.00308205 0.00396378 
3548 2 -0.00513053 -0.00145745 -0.00565789 0.00777549 
291 1 0.000204616 -0.00324247 0.0015275 0.00359009 
482 1 0.000199615 0.00545741 -0.00250256 0.00600716 
1314 1 -0.002338 0.00355129 -0.00037776 0.00426856 
3672 2 -0.00187654 0.00467634 -0.00155412 0.00527303 
375 1 -0.00311997 0.00587078 -0.00113897 0.00674519 
94 1 0.00136883 0.000697475 -0.00071769 0.00169565 
3281 1 -0.00472031 -0.0011078 0.00084793 0.00492214 
37 1 0.00401785 0.00182243 0.0077175 0.00888956 
3321 1 -0.000237989 0.000560625 0.000732412 0.000952558 
4264 2 0.00612361 -0.00477122 0.000554652 0.00778272 
3664 2 -0.00238567 -0.00205901 0.000974538 0.00329859 
3380 1 -0.00169855 0.00388311 0.00193724 0.0046601 
901 1 -0.00323771 0.00220857 -0.00103249 0.00405297 
4309 2 0.00190813 -0.00256449 0.0026571 0.00415665 
392 1 0.0010333 0.00174485 -0.000363266 0.00206014 
436 1 0.00341756 0.00954765 0.0020407 0.0103442 
792 1 -0.000780991 -0.00115113 0.00489794 0.00509164 
3293 1 0.00792025 -0.00128834 -0.00483428 0.00936806 
1354 1 -0.00651767 -9.51595e-06 -0.00367253 0.00748115 
318 1 -0.00165721 -0.00345904 0.00328086 0.00504731 
3350 1 0.000781117 0.00309463 0.000470675 0.00322621 
3314 1 0.00392384 -0.00342198 -0.000986629 0.00529904 
2861 1 -0.00558914 0.00300243 5.42361e-05 0.00634476 
3180 1 -0.00592657 -0.00483267 -0.00554418 0.00944547 
3150 1 -0.000308326 0.0027208 0.00178456 0.0032684 
3320 1 0.000513507 -0.00138407 -7.17334e-05 0.001478 
3095 1 0.00334683 0.00283303 0.00117902 0.00454064 
2479 1 7.53824e-05 -0.000860346 0.000782316 0.00116529 
614 1 0.00147489 -0.000891926 -0.000580216 0.00181865 
771 1 -0.00233893 -0.000324319 -0.00483949 0.00538483 
3392 1 -0.00694475 -0.00460462 0.00141159 0.00845131 
3257 1 -0.00302311 0.00140593 -0.000980208 0.00347515 
2961 1 0.00339809 -0.00117458 0.000118642 0.00359733 
160 1 0.00403714 -0.00164758 -0.000949553 0.00446258 
4271 2 -0.00305529 -0.00077321 -0.00373344 0.00488582 
1172 1 -0.00038083 -0.00203927 -0.000512467 0.00213689 
652 1 -0.00150475 0.00228902 0.00129008 0.0030279 
3568 2 -0.00497571 0.000618577 -0.00506014 0.00712358 
3433 1 0.00308425 0.00442346 -0.00162985 0.00563347 
3419 1 -0.000160513 0.00109093 0.000124867 0.00110973 
248 1 0.00565853 0.000922196 0.00104187 0.00582709 
3560 2 -0.00313181 0.00221621 0.00311258 0.00494044 
3535 2 -0.00356479 -0.00221881 0.0019459 0.00462789 
4028 2 0.00248871 0.00125775 0.0028579 0.00399289 
3082 1 0.00171781 0.00295807 0.00227627 0.00410883 
3487 2 -0.00298976 0.00304279 -0.00053384 0.00429909 
1304 1 -0.00124758 0.000764775 0.0028741 0.00322518 
325 1 0.00242914 -0.00419572 -0.00178107 0.00516498 
292 1 -0.00400384 -0.00225324 -0.000441233 0.00461546 
3444 1 -0.00078419 0.00239219 0.00419542 0.00489276 
908 1 -0.00172914 -0.00351484 0.00202592 0.00441003 
3504 2 0.00349655 0.00207212 -0.00195347 0.0045095 
423 1 -0.000246244 -0.00118221 0.00515845 0.00529791 
502 1 0.0011148 -0.00600682 -0.00038762 0.00612168 
3435 1 -0.00362069 -0.00338145 -0.00545487 0.0073688 
430 1 0.00523006 -0.00582815 -0.0039461 0.00876884 
439 1 -0.00020504 0.00517452 -0.00407202 0.0065878 
3331 1 -0.00133704 0.000526358 0.00127212 0.00191912 
4182 2 0.00308024 0.003307 -0.00279018 0.00531124 
874 1 -0.00273567 0.00440249 0.000692779 0.00522932 
980 1 -0.00135881 -0.00122313 0.00395359 0.00435584 
810 1 -0.00126408 -0.000786343 0.000741962 0.00166335 
3312 1 -0.00225526 0.0021946 0.000776237 0.00324114 
1442 1 0.0025431 0.0035139 0.00155516 0.00460797 
225 1 -0.00409252 0.000292404 -0.00843672 0.00938149 
4280 2 -0.00137125 0.00183693 0.00337218 0.00407752 
416 1 0.00264924 -0.00294999 0.00389776 0.00555998 
365 1 0.00366104 -0.00400912 0.000980674 0.00551706 
3799 2 -0.0014066 -0.00237681 -0.000700878 0.00284938 
2819 1 -0.000845908 0.0052866 0.00257833 0.00594235 
382 1 0.00233188 0.0013939 0.00416675 0.00497418 
404 1 0.00266697 -0.00290076 0.000972298 0.00405863 
2776 1 0.00168487 0.00263845 0.00113376 0.0033295 
2973 1 0.00157284 0.00135748 0.00511493 0.00552078 
957 1 -0.00327037 0.000760921 -0.000869733 0.00346853 
795 1 0.0009142 -0.00307852 0.00385996 0.00502119 
490 1 -0.00178501 -0.00229943 0.00597188 0.00664357 
3266 1 -0.00367358 0.00425057 -0.00187251 0.00592189 
863 1 -0.00171083 -0.00416378 -0.0043041 0.00622811 
22 1 -0.00361762 -0.000335084 -0.00196332 0.00412966 
4285 2 0.00245364 -0.000568364 0.00330699 0.00415688 
496 1 0.00425876 0.00287588 -0.000652308 0.00518008 
2993 1 0.00673502 -0.00511801 0.00378882 0.00926875 
4256 2 -0.00142681 -0.00869571 -0.00149949 0.00893865 
471 1 0.00199637 0.00676436 -0.00127041 0.00716631 
517 1 -0.00473654 0.00588828 0.00108196 0.00763395 
279 1 0.00121287 -0.00107212 -0.00469403 0.00496532 
187 1 0.000523191 -0.00065823 -0.00707871 0.00712847 
917 1 -0.00170064 0.00517834 0.00803052 0.0097055 
3322 1 0.000268037 -0.00634602 0.00340902 0.00720869 
3863 2 -0.00487918 0.00365018 -0.00134396 0.0062399 
274 1 -0.00334817 0.000973514 0.00157178 0.00382472 
1091 1 -0.00265408 0.00011255 0.00144652 0.00302477 
3396 1 0.00277044 0.00608238 -0.00120505 0.00679138 
349 1 0.00309246 0.00226181 -0.0047339 0.00609006 
2545 1 -0.00445453 -0.00365626 0.000593675 0.0057934 
3327 1 -0.00271472 -0.00086886 0.00320464 0.00428886 
3674 2 -0.0038942 0.00433655 0.00202042 0.00616868 
1418 1 0.00347171 -0.000142698 0.00396251 0.00527016 
443 1 0.00468958 0.00320293 0.00272874 0.00630055 
855 1 -0.00242961 -0.00102949 0.00332898 0.00424794 
3420 1 0.00385223 0.00161176 -0.00600294 0.0073125 
2869 1 0.00532453 -0.0140152 0.00216161 0.0151476 
4307 2 -0.00136624 -0.0065232 -0.000395523 0.00667646 
3476 2 0.0010136 -0.00654493 -0.0067461 0.00945375 
177 1 -0.00152788 -0.00620958 0.00163348 0.00660012 
363 1 0.00736454 0.00186905 0.00210635 0.00788457 
1450 1 -0.00668201 0.00263387 -0.000896255 0.00723808 
3559 2 -0.00424572 0.00119147 0.00475365 0.00648405 
347 1 0.00114136 0.000237149 -0.00411868 0.00428047 
4237 2 -0.00426858 -0.00324119 0.000650165 0.00539897 
319 1 0.00216483 -0.00256047 -0.00193936 0.00387345 
830 1 0.000755424 0.00301761 -2.63945e-05 0.00311084 
295 1 -0.00374624 0.00247073 -0.000580296 0.004525 
937 1 -0.00399823 0.000294439 -0.000393534 0.00402832 
268 1 0.00362226 -0.00360136 0.000705786 0.00515642 
854 1 -0.000819577 0.00170662 5.24159e-05 0.00189394 
442 1 -0.00157942 0.000854529 0.00123839 0.00218137 
875 1 0.00431832 -0.000791677 -0.00153227 0.00465 