ITEM: TIMESTEP
900
ITEM: NUMBER OF ATOMS
4320
ITEM: BOX BOUNDS pp pp pp
0.0000000000000000e+00 1.9309999999999999e+01
0.0000000000000000e+00 1.9309999999999999e+01
0.0000000000000000e+00 9.6549999999999994e+00
ITEM: ATOMS id type c_displacement[1] c_displacement[2] c_displacement[3] c_displacement[4] 
3196 1 0.0381014 0.043512 0.141784 0.153127 
381 1 -0.00113003 0.113144 0.0142421 0.114043 
327 1 -0.011137 -0.0209977 -0.0585423 0.0631834 
484 1 -0.0479568 0.160614 -0.0908119 0.19064 
728 1 0.0309449 -0.0559603 -0.19129 0.201696 
817 1 -0.0657951 -0.105897 0.0202689 0.126309 
3006 1 0.186283 0.113982 0.0328517 0.220845 
3679 2 -0.00135182 0.0579659 0.14856 0.159474 
59 1 0.0108498 -0.0981919 0.0819917 0.128382 
2945 1 -0.0591675 0.16444 0.0506606 0.181956 
3230 1 0.00227872 0.0601835 0.089062 0.107514 
3651 2 0.198671 0.160552 0.239948 0.35046 
66 1 0.0709715 0.064582 0.0661976 0.116576 
400 1 -0.0408446 0.128796 0.0236659 0.137174 
677 1 0.0542049 0.0553335 0.0783514 0.110177 
623 1 0.0601342 -0.0447715 0.00785688 0.0753813 
87 1 0.183292 0.12168 0.048699 0.225329 
3199 1 0.0971048 0.0514894 -0.0849691 0.138925 
727 1 0.253252 0.0032909 -0.0700105 0.262771 
688 1 0.109467 0.0125296 0.207434 0.23488 
58 1 0.00467595 -0.109509 0.0089679 0.109975 
3514 2 0.0313263 0.0415096 -0.0868625 0.10124 
18 1 0.160087 0.136702 0.167609 0.269088 
3618 2 -0.0896609 -0.0567385 0.106723 0.150493 
190 1 -0.0492245 0.149953 -0.11247 0.1938 
298 1 -0.0489547 -0.0334484 -0.0796553 0.0992992 
559 1 0.162012 0.0884337 0.0222624 0.185914 
110 1 0.0158139 -0.0409227 0.174874 0.180293 
180 1 0.169346 -0.0853633 0.0853404 0.207961 
106 1 -0.105778 -0.0476245 -0.00187058 0.11602 
217 1 0.0418701 -0.0982419 0.060036 0.122511 
775 1 -0.0267033 -0.00837629 -0.185543 0.187642 
3627 2 0.0105607 0.0166311 -0.0972481 0.0992236 
608 1 -0.00228587 -0.0145784 0.123006 0.123888 
7 1 0.0106893 -0.0335188 -0.0854625 0.0924208 
3118 1 0.0458181 0.113232 -0.0352512 0.127136 
562 1 0.0629248 -0.101718 -0.0780209 0.142806 
70 1 0.132348 0.0757991 -0.016472 0.153404 
121 1 0.0590335 0.0172315 0.0221791 0.0653742 
1118 1 0.00119011 -0.228391 -0.134907 0.265262 
210 1 0.138754 0.000158094 0.139226 0.196562 
232 1 -0.192554 -0.0381092 0.0632379 0.206224 
4214 2 0.272882 -0.0821305 0.131496 0.313849 
4170 2 0.0408698 0.0817287 -0.0166291 0.0928787 
65 1 0.0369432 -0.00782844 0.00758447 0.0385177 
226 1 0.310894 -0.0366281 0.191519 0.366983 
532 1 0.0520124 0.0544876 0.0660251 0.100167 
3578 2 0.00375641 0.0477254 0.0621387 0.0784414 
473 1 0.153893 -0.109359 0.021352 0.189996 
246 1 0.107818 0.0326496 0.0433416 0.120703 
3712 2 0.124596 0.0890508 -0.0583268 0.163879 
73 1 -0.0564233 0.0152476 -0.0409355 0.0713568 
3460 2 0.0768684 -0.00272986 -0.0145859 0.0782877 
4071 2 0.186119 0.220896 0.384206 0.480676 
2838 1 0.299487 0.197382 -0.0377695 0.360664 
536 1 0.010358 0.105663 0.0265927 0.109449 
894 1 -0.0609524 -0.0351062 -0.0129053 0.0715136 
289 1 -0.00779022 -0.101957 -0.0827716 0.131556 
351 1 -0.0563774 0.0936457 0.0637964 0.126562 
197 1 -0.0120938 -0.00917265 -0.201523 0.202093 
3135 1 0.100954 0.193639 0.0504326 0.224123 
303 1 -0.0610551 0.0551877 0.000403416 0.0823017 
1415 1 0.132495 -0.0432939 0.125778 0.187748 
527 1 -0.0475492 -0.0327434 0.165403 0.175189 
3002 1 0.0736063 0.0237763 0.209803 0.223608 
3189 1 -0.00675881 0.0624498 0.0674442 0.092165 
712 1 0.0186568 -0.0702881 0.191859 0.205179 
718 1 0.098669 0.0853023 0.0364047 0.135415 
3469 2 -0.129827 0.020825 0.0110636 0.131951 
4177 2 0.122256 -0.526717 0.161345 0.564278 
93 1 -0.179529 0.0519955 0.170522 0.253006 
569 1 -0.134064 -0.0683263 0.144832 0.208849 
639 1 -0.0731289 0.13727 0.0419552 0.161094 
21 1 -0.169051 -0.0513295 0.262562 0.316468 
96 1 0.0356778 0.155804 0.0947038 0.185787 
3353 1 -0.144699 -0.0608487 -0.0571643 0.167057 
823 1 0.0402694 -0.0154009 0.0476118 0.0642316 
2596 1 -0.119041 -0.252903 0.058028 0.285478 
50 1 -0.0159908 -0.0951722 0.0417133 0.105135 
2495 1 0.053381 0.0703412 0.0144179 0.0894723 
28 1 -0.142472 0.0857767 0.0416352 0.171434 
3055 1 0.0493827 0.0234287 0.0700607 0.0888598 
12 1 0.125158 0.072179 -0.00880324 0.144747 
3346 1 0.0588133 0.0184781 0.0552349 0.0827728 
738 1 0.128204 0.0771144 0.0171995 0.150595 
2453 1 -0.068752 0.0248928 0.268313 0.278097 
3167 1 0.0142824 -0.0455991 0.0442632 0.0651344 
339 1 -0.0440201 0.135091 0.0817958 0.163945 
988 1 0.116944 0.059996 0.0239138 0.133594 
737 1 0.116148 0.105332 0.106873 0.189755 
2939 1 -0.0809081 0.0348889 0.164955 0.187012 
390 1 0.241172 0.147945 0.141481 0.316337 
203 1 -0.0758432 -0.00376869 -0.0502248 0.0910435 
3582 2 0.0920818 0.323362 -0.0276064 0.337348 
3632 2 0.12542 0.113121 -0.0257642 0.170852 
231 1 0.140768 0.0787112 0.0502811 0.168936 
323 1 0.124211 0.203925 -0.0324889 0.240976 
3244 1 0.145981 0.13449 -0.038011 0.202096 
118 1 0.158635 0.0353883 0.0147178 0.163199 
2735 1 0.0689485 0.0362443 0.0477635 0.0913723 
2768 1 -0.0311582 0.0303133 0.0485732 0.065185 
2960 1 -0.00164923 -0.133734 0.0614572 0.147188 
29 1 0.0264036 0.0514063 0.0313314 0.0657374 
753 1 -0.00404483 -0.148699 0.0908591 0.174307 
3467 2 -0.00202871 -0.00931011 0.000664519 0.00955173 
4289 2 0.059553 0.117492 0.0140941 0.132474 
2936 1 -0.0675254 0.230009 -0.110385 0.263911 
3478 2 0.127756 0.00151614 0.129964 0.182248 
725 1 -0.113837 0.0614435 0.0451143 0.137001 
3877 2 0.0140184 0.0608305 -0.00194149 0.0624551 
3611 2 0.0933449 -0.0867933 -0.049608 0.136775 
4187 2 0.000709531 -0.120694 0.0251692 0.123293 
437 1 0.024999 -0.00014914 0.00804363 0.0262616 
53 1 0.13401 -0.0192107 -0.0207078 0.136955 
593 1 -0.0956803 0.0986269 0.218865 0.258426 
609 1 0.0858653 -0.121392 0.0165715 0.149611 
3040 1 0.0346157 -0.0194132 0.0975974 0.105358 
546 1 -0.0464588 0.0155412 0.0936604 0.105699 
167 1 -0.062126 0.110401 0.0968269 0.159447 
2684 1 -0.163171 0.0872998 0.141224 0.232788 
610 1 0.170351 0.0857573 0.116341 0.223403 
247 1 -0.00555688 -0.00792598 0.175765 0.176032 
89 1 -0.0573769 -0.0620485 0.0899821 0.123446 
3149 1 0.0725843 0.0233134 0.184724 0.199837 
550 1 -0.139559 -0.0430363 0.131065 0.196231 
147 1 -0.0353249 0.167815 0.256894 0.308876 
3554 2 -0.0211865 0.0541654 -0.0197083 0.0614099 
3786 2 -0.155305 0.14041 0.0589151 0.217498 
5 1 -0.00964967 0.0730018 0.106459 0.129445 
2591 1 -0.00895604 0.0605888 0.00278362 0.0613104 
3232 1 0.0771125 0.0257015 -0.0306834 0.0868814 
1215 1 0.0416144 -0.028138 -0.00265975 0.0503048 
859 1 0.15033 0.148322 0.0287774 0.213135 
3152 1 -0.118644 -0.0891651 0.0873732 0.172223 
3608 2 0.054877 0.0908817 -0.034562 0.111649 
453 1 -0.157929 -0.137671 -0.114833 0.238917 
2461 1 -0.0467426 0.00632164 -0.135717 0.14368 
23 1 -0.0124737 0.0415015 -0.012402 0.0450752 
3743 2 0.0517673 0.0160049 -0.0039842 0.0543313 
3023 1 -0.058583 0.081365 -0.0785653 0.127376 
151 1 0.00622779 -0.128499 0.0270421 0.131461 
43 1 0.0071671 0.0206815 -0.036871 0.0428785 
3730 2 0.00183827 0.146045 -0.0705429 0.1622 
424 1 0.17016 0.0342007 -0.0863902 0.193875 
389 1 0.241027 -0.281094 0.0910007 0.381299 
3251 1 -0.120304 -0.0544146 -0.0695203 0.149221 
903 1 0.134556 0.35581 0.268203 0.465445 
2500 1 0.0419725 -0.014526 -0.0288012 0.0529358 
3188 1 0.022294 0.130459 0.128489 0.184462 
3491 2 0.0296514 0.0884978 -0.0626709 0.112422 
717 1 -0.0242294 0.0208433 0.138504 0.142144 
2931 1 -0.172501 -0.0808765 0.0239016 0.192013 
691 1 -0.0398771 -0.0585462 -0.0189367 0.0733242 
215 1 0.0207678 -0.0143241 -0.0575739 0.0628589 
174 1 0.0691624 -0.0777093 0.127512 0.164564 
3493 2 0.0846677 0.0340458 0.238541 0.255401 
3634 2 0.120349 0.0950257 0.0668544 0.167282 
2994 1 0.0131901 -0.118646 0.0763669 0.141714 
529 1 0.063323 -0.150222 0.0535462 0.171592 
1480 1 0.175505 -0.0821378 0.214929 0.289384 
2968 1 0.0290759 0.0677244 0.0643423 0.0978362 
3464 2 -0.00587468 0.00234371 0.0155454 0.0167829 
98 1 0.16245 -0.19936 0.222697 0.340189 
216 1 0.243758 0.0699335 0.00524818 0.253645 
40 1 0.0113465 -0.0788299 0.190255 0.206252 
1130 1 0.0342564 -0.050132 0.091023 0.109416 
1102 1 0.0630418 0.106858 -0.0382976 0.129844 
3041 1 0.130065 -0.150921 -0.0475411 0.204828 
604 1 -0.0408218 -0.072995 0.121167 0.147228 
721 1 -0.279869 -0.0520534 0.0265834 0.285908 
3164 1 0.0403139 0.205784 0.0882925 0.227526 
1179 1 0.161542 0.0999866 -0.179382 0.261287 
103 1 -0.0775417 0.128602 -0.0376454 0.154817 
64 1 -0.103283 -0.00143445 -0.151188 0.183105 
193 1 -0.0264712 0.142751 -0.0480509 0.152929 
44 1 0.0412801 -0.0443634 0.0364957 0.0707396 
2996 1 -0.0635859 0.00780716 -0.193544 0.203871 
4212 2 -0.180244 0.197962 -0.00525228 0.267776 
3279 1 -0.0587063 0.140263 -0.0272425 0.154474 
1133 1 0.157828 0.127281 0.0622597 0.2121 
178 1 -0.0274956 0.0322335 -0.147518 0.153481 
330 1 0.0492758 0.143418 0.00463661 0.151718 
233 1 0.119355 0.0090211 0.204282 0.236766 
1991 1 0.114177 0.0938904 0.0490799 0.155758 
600 1 -0.115048 -0.00353863 0.0541765 0.127215 
338 1 -0.0921955 0.0279226 -0.00261748 0.0963666 
4101 2 -0.0909788 0.00829495 0.134452 0.162552 
949 1 -0.106654 0.133661 0.0578503 0.180519 
3447 1 0.172293 -0.0243544 0.0217037 0.175354 
2995 1 0.0069071 -0.0467502 -0.0800604 0.0929675 
4217 2 -0.177758 -0.00461317 0.169137 0.245411 
479 1 -0.0141524 0.0876354 0.110701 0.141898 
3335 1 -0.0831547 -0.0518715 -0.0636466 0.11686 
1457 1 -0.00371024 -0.0407435 0.0654151 0.0771552 
3037 1 -0.0202233 0.0975961 -0.0877298 0.13278 
4253 2 0.0766602 0.0164402 -0.148577 0.167994 
387 1 -0.0459821 -0.0712664 -0.0332937 0.0911138 
3736 2 -0.061344 0.172448 0.0445482 0.188377 
3394 1 0.0206828 -0.0348085 -0.0935143 0.101904 
508 1 -0.0212101 0.00655881 0.0938804 0.0964698 
3537 2 0.0731309 -0.0506563 0.0552147 0.104704 
747 1 0.0379581 0.093312 0.0126773 0.101532 
497 1 0.01973 -0.00924235 -0.00680466 0.0228253 
958 1 -0.0385083 -0.139801 0.123006 0.190152 
3130 1 -0.100437 -0.0544754 0.0139138 0.115103 
4163 2 -0.0988409 0.0135653 0.157224 0.186207 
3643 2 0.0240707 -0.116399 0.0629875 0.13452 
133 1 -0.0222014 0.0461106 0.121748 0.132067 
4204 2 -0.00201174 -0.00991377 0.0679184 0.0686676 
86 1 0.16327 0.0196038 0.0393644 0.169089 
759 1 0.0475582 0.0139517 0.132332 0.141309 
3411 1 0.0928878 -0.0267201 0.0555925 0.111502 
835 1 0.0256205 0.00299634 0.12316 0.125832 
3057 1 0.0883583 0.0239498 0.0366066 0.0985942 
3620 2 0.0499367 -0.0245561 0.0897498 0.105602 
241 1 -0.209005 0.0527935 0.0658389 0.2254 
704 1 0.106684 -0.0724416 0.00327742 0.128996 
3599 2 -0.301764 0.265406 -0.14673 0.427822 
157 1 0.0422697 0.0159239 0.0116002 0.0466354 
54 1 0.0654133 -0.216522 0.042129 0.230077 
493 1 -0.220802 0.33376 -0.16665 0.4335 
204 1 -0.0693107 0.0269128 -0.0343256 0.0818934 
254 1 -0.00380149 0.135064 -0.190216 0.233321 
67 1 0.0455654 -0.212647 -0.0216868 0.218553 
2988 1 -0.140714 0.224356 -0.187485 0.324479 
3030 1 -0.350303 0.231206 -0.173499 0.45417 
4050 2 0.0878075 0.205127 0.0254534 0.224578 
3479 2 -0.0259439 0.36739 -0.0341421 0.369884 
674 1 0.0470462 -0.0199997 0.0250249 0.0569173 
2004 1 -0.162305 -0.0772567 -0.124825 0.218844 
4228 2 0.0509806 -0.0995017 0.0294296 0.11561 
3216 1 -0.19758 0.0377288 0.115147 0.231776 
234 1 -0.0311967 -0.0500905 -0.0420602 0.0724662 
1036 1 -0.0210646 -0.0821525 -0.00889959 0.0852758 
3369 1 -0.0659294 0.00614944 0.141487 0.156215 
3607 2 -0.195337 -0.096761 0.241891 0.325623 
3139 1 -0.0223139 -0.0376591 0.0947458 0.104369 
644 1 -0.310477 -0.104928 0.0204436 0.328365 
1278 1 0.0767659 -0.00525036 0.100061 0.126225 
4269 2 -0.120197 0.123379 0.123021 0.21167 
3007 1 -0.0902604 0.180288 0.0886987 0.220269 
354 1 0.156754 0.0395704 0.0900131 0.185041 
4089 2 0.0120721 0.21772 0.0432649 0.222305 
214 1 -0.0683151 0.0985704 0.0719425 0.139853 
640 1 -0.190387 -0.0160468 0.12085 0.226074 
199 1 -0.0719316 0.000387884 0.0718537 0.101672 
245 1 -0.0457313 -0.161889 0.161546 0.23323 
2758 1 -0.196674 0.195106 0.155407 0.317645 
3056 1 -0.260256 -0.0432107 0.134317 0.296043 
3468 2 -0.199697 0.00784275 0.042271 0.204273 
563 1 -0.128041 0.115897 -0.0567266 0.181781 
2977 1 -0.00318595 0.123194 0.0370732 0.128691 
1149 1 0.0914745 -0.0271723 -0.0146154 0.0965377 
3916 2 -0.0393379 0.00177429 0.167867 0.172424 
249 1 -0.0900218 0.0397168 0.0466228 0.108881 
3096 1 -0.0561658 0.0822316 0.137781 0.170001 
240 1 -0.0712812 0.0491645 0.132677 0.158434 
181 1 0.0211949 0.0513982 0.198984 0.206605 
46 1 0.0386394 -0.0179765 0.0715463 0.0832769 
3211 1 0.041714 0.00670765 0.0214116 0.0473657 
235 1 -0.187148 -0.0675319 0.0316425 0.20146 
95 1 -0.105518 -0.134654 0.0400714 0.175703 
4098 2 0.0449 0.163548 0.0753762 0.185595 
3512 2 0.0259884 0.0193424 0.0576258 0.066108 
3603 2 -0.0742098 -0.138368 -0.0501353 0.164822 
3701 2 0.155172 0.113772 0.166785 0.254637 
3513 2 -0.0433806 -0.0669596 0.0482029 0.0932147 
312 1 -0.00180015 -0.0484652 0.00505169 0.048761 
587 1 0.0944056 0.0990696 0.0527852 0.146675 
134 1 0.0472511 0.115253 0.0648159 0.140417 
135 1 -0.157218 -0.0717769 -0.193507 0.25945 
3003 1 -0.0128444 0.0720728 0.180649 0.194919 
191 1 0.118508 0.158596 -0.0453741 0.203115 
685 1 0.0810876 0.00173133 -0.0762307 0.111307 
602 1 -0.0820622 -0.0429219 0.0139299 0.0936512 
195 1 0.0591676 0.0407665 0.0196642 0.0744943 
3092 1 0.0680344 -0.032583 0.134019 0.15379 
4195 2 -0.0367537 -0.187139 -0.185108 0.265776 
80 1 -0.111985 -0.00421205 0.055156 0.124902 
540 1 -0.198813 0.183742 -0.264612 0.378559 
2981 1 -0.0170611 -0.0129306 0.0935074 0.0959266 
427 1 -0.0624125 -0.17846 -0.190959 0.268716 
4173 2 -0.0516193 0.0158169 0.00960514 0.054836 
2950 1 0.0610131 -0.129803 -0.0502789 0.151985 
6 1 -0.151594 0.0906698 -0.0304199 0.17924 
182 1 0.0494001 -0.159388 -0.194782 0.256485 
690 1 -0.050219 -0.0654631 0.0272929 0.0869038 
3408 1 -0.0626485 0.149375 0.154365 0.223756 
902 1 0.0698549 -0.0272734 0.0381512 0.0841372 
154 1 -0.085779 0.0735898 -0.0198575 0.114751 
710 1 -0.17713 -0.136171 -0.165496 0.27804 
3115 1 -0.228299 0.0525823 0.148981 0.277634 
742 1 -0.0533907 -0.0158032 -0.117712 0.130217 
2926 1 -0.174766 0.0146884 0.11638 0.210483 
446 1 0.0120731 -0.0233868 0.0489408 0.0555689 
580 1 -0.0775193 -0.0340535 0.341113 0.351464 
3518 2 -0.158284 0.221667 0.0376963 0.274974 
825 1 0.0573167 -0.0145165 0.108355 0.123437 
3841 2 -0.0217215 -0.211514 0.153099 0.262011 
2934 1 0.0578647 -0.0188313 0.0481832 0.0776181 
78 1 0.0474571 0.0512473 -0.00695435 0.0701914 
920 1 0.0464884 0.00865317 -0.0350742 0.0588748 
551 1 -0.183375 -0.00607847 -0.155048 0.240215 
257 1 -0.0977565 -0.0634633 0.0434228 0.124376 
205 1 -0.179605 0.123896 0.0152309 0.218724 
694 1 -0.103966 0.234185 0.102898 0.276115 
861 1 0.049307 0.0912805 -0.119609 0.158334 
3549 2 0.0261791 0.0135467 -0.280668 0.282212 
4014 2 -0.0906002 0.0187288 0.060308 0.110436 
3401 1 -0.0843152 0.22746 0.0785286 0.254978 
3808 2 0.126118 0.0162737 0.0825683 0.151618 
614 1 0.187515 0.0219063 0.138858 0.234357 
3341 1 -0.0905688 0.159817 -0.0431009 0.188684 
512 1 0.302645 0.118583 0.167348 0.365597 
300 1 -0.10224 0.0346483 0.0728114 0.130211 
393 1 0.0713218 0.0436183 0.114378 0.141675 
2740 1 -0.0499092 0.243499 0.0940316 0.265753 
4257 2 0.186988 0.409072 -0.328038 0.556698 
4006 2 -0.356747 -0.310104 0.231995 0.52655 
286 1 -0.130097 -0.0530557 -0.00042765 0.1405 
886 1 0.246657 0.149004 0.0610714 0.29457 
277 1 -0.180735 0.000847539 0.0074282 0.18089 
364 1 -0.076108 0.0152774 0.151634 0.170348 
1367 1 -0.0320736 -0.0019197 0.0203018 0.0380074 
411 1 -0.0733798 0.168195 0.0645735 0.194535 
3658 2 0.00679521 0.173234 0.285878 0.334339 
356 1 0.16372 -0.011527 0.0264465 0.166242 
3678 2 -0.0390696 0.10905 0.157061 0.195158 
357 1 0.0131394 0.0105875 -0.134383 0.135439 
265 1 0.012825 0.0673982 -0.024705 0.0729201 
3389 1 0.0736122 -0.0869225 0.00140416 0.113913 
362 1 -0.124224 -0.032317 -0.123305 0.177989 
478 1 -0.0536598 0.123804 0.0813435 0.157555 
4159 2 -0.0924875 -0.0226353 -0.0281466 0.0992901 
2696 1 -0.0776553 -0.0396665 0.0900891 0.125379 
966 1 -0.0642798 0.254346 0.0895908 0.277219 
3612 2 -0.10838 0.0305284 -0.201844 0.231126 
3392 1 -0.087029 0.00148233 0.00973868 0.0875848 
780 1 -0.00213436 -0.103694 0.034437 0.109284 
924 1 -0.0632735 0.0222155 0.050128 0.0837251 
2710 1 0.0906013 -0.0292886 0.047229 0.106287 
3313 1 0.00161034 0.119015 0.0590359 0.132862 
433 1 -0.0135172 0.00196419 -0.0465329 0.0484963 
553 1 -0.0969586 -0.114435 -0.118902 0.1914 
3333 1 -0.143071 -0.126776 0.0252159 0.192814 
3303 1 -0.0201629 0.0226717 0.104327 0.10865 
3526 2 -0.162477 0.010998 0.0106916 0.1632 
3249 1 0.0241199 0.114401 -0.142306 0.184174 
92 1 -0.287722 0.137367 0.318611 0.45074 
3379 1 -0.0954315 -0.0324376 -0.0340609 0.106393 
1449 1 -0.10069 -0.022238 -0.00365204 0.103181 
160 1 -0.228789 0.130473 0.052091 0.268479 
1077 1 0.0942539 0.050633 0.0950321 0.143103 
462 1 -0.0913495 -0.144746 0.0529013 0.17915 
2966 1 0.0755438 -0.0329331 -0.0392576 0.0912831 
3022 1 0.00790228 0.0925784 -0.0952629 0.133072 
750 1 -0.0151834 0.0343693 0.0391935 0.0542947 
3162 1 0.122913 0.147825 -0.192818 0.272284 
449 1 0.076628 0.0307092 -0.132776 0.156347 
3482 2 -0.199461 -0.0870579 0.109293 0.243534 
287 1 0.121519 -0.0521555 -0.137693 0.190909 
3647 2 0.20812 0.0888174 0.193017 0.297419 
2890 1 0.240342 -0.0222543 0.155151 0.286935 
1285 1 0.141945 -0.0570963 0.0200734 0.154309 
943 1 0.0281887 0.0924225 0.10285 0.141119 
3305 1 0.0597102 0.185122 0.0833646 0.211625 
3209 1 0.198788 -0.01069 0.0161869 0.199732 
3631 2 0.0679912 0.163341 -0.160117 0.238622 
3257 1 0.25516 -0.17511 -0.128334 0.335022 
4318 2 -0.143361 -0.149437 0.0663234 0.217446 
3883 2 0.0528397 0.036415 0.0794071 0.102096 
3531 2 0.0221131 -0.10949 -0.0977891 0.148458 
3227 1 0.00602661 -0.12884 -0.0161358 0.129987 
373 1 -0.0041227 0.082396 -0.056157 0.0997983 
4297 2 -0.0700583 0.10278 0.03213 0.128469 
3404 1 -0.0472495 -0.0729274 -0.0304013 0.0920607 
398 1 0.062078 -0.0627523 0.0234321 0.0913269 
2732 1 0.0105839 -0.0756369 -0.162715 0.179748 
3221 1 -0.0674162 0.119659 -0.0381592 0.142546 
836 1 0.00242537 -0.0511476 0.0368242 0.0630713 
309 1 -0.0445798 0.201163 0.132708 0.245082 
394 1 0.149069 -0.0371688 0.166789 0.226764 
412 1 -0.00190077 0.0550163 0.139598 0.15006 
1212 1 -0.105693 0.0896533 0.175433 0.223575 
3573 2 -0.24804 0.00626494 0.0840921 0.261982 
3360 1 -0.19797 0.0242035 0.103294 0.224605 
3319 1 -0.144277 0.0735031 0.0365731 0.166 
3588 2 -0.0570055 0.067588 0.0738882 0.115227 
2365 1 -0.193876 0.059593 -0.0117189 0.203166 
306 1 -0.23223 -0.0033456 -0.0464103 0.236845 
3093 1 -0.120014 -0.00777425 -0.0717667 0.140051 
2745 1 -0.160521 -0.0148191 -0.0263255 0.163339 
355 1 -0.208315 0.0441857 -0.0109776 0.213233 
3097 1 -0.0434226 7.91741e-05 -0.0478995 0.0646521 
3197 1 -0.22805 -0.00262422 -0.113148 0.25459 
228 1 -0.160902 0.0557805 0.0369888 0.174267 
3324 1 0.00353271 0.0470838 -0.0813153 0.0940294 
951 1 -0.0908414 -0.0807519 -0.116655 0.168468 
2737 1 -0.155959 0.0574309 -6.6744e-05 0.166197 
2959 1 -0.0639026 0.186952 -0.00737084 0.197709 
4284 2 -0.144082 0.0544614 -0.120027 0.195274 
4225 2 0.213244 -0.0748944 -0.0414582 0.229785 
332 1 -0.149572 -0.0277361 -0.0445682 0.158516 
3290 1 0.0495397 0.0280571 -0.0348638 0.0667598 
716 1 0.134082 -0.0691317 0.0470572 0.158024 
353 1 0.00457347 -0.0801836 -0.0366581 0.0882845 
601 1 0.0905029 0.125001 0.0310086 0.157409 
3094 1 0.096677 -0.0511972 -0.062857 0.126169 
3617 2 0.166419 -0.0301939 0.0625488 0.180331 
206 1 0.0269013 -0.0439174 -0.0848997 0.0992994 
71 1 0.126047 -0.0643378 -0.0265982 0.143996 
3676 2 0.0541652 -0.0194679 -0.0134435 0.0591067 
3192 1 0.0898213 -0.130182 0.0625273 0.170073 
4185 2 0.00872723 -0.148732 0.0631106 0.161803 
3483 2 0.00440368 0.134018 0.0504517 0.143268 
763 1 0.0693691 0.0182615 0.120268 0.140036 
3561 2 0.0407498 0.0470026 0.145274 0.158032 
3409 1 0.00901941 -0.19314 -0.0579153 0.201838 
388 1 0.0600564 0.093998 0.1716 0.204668 
1313 1 0.111077 -0.00580123 0.0556219 0.124361 
444 1 0.10765 0.0939065 0.0354542 0.147187 
3668 2 0.197128 0.216643 0.0900724 0.306442 
838 1 0.122336 0.0619552 0.0893579 0.163674 
460 1 0.0808417 0.0192163 0.0880781 0.121088 
499 1 0.131611 -0.00512191 -0.100363 0.165591 
3548 2 -0.569064 -0.149014 -0.0875504 0.594731 
291 1 0.0337279 -0.120991 -0.140476 0.188441 
482 1 0.0447483 -0.058935 0.0398929 0.0840666 
1314 1 -0.0605313 0.112851 0.124313 0.178474 
3672 2 -0.00153399 0.00145946 -0.0871477 0.0871734 
375 1 0.127863 -0.0504215 -0.0423698 0.143828 
94 1 0.0921242 -0.071835 -0.0658266 0.134091 
3281 1 0.0147323 -0.0381152 0.0758549 0.0861613 
37 1 -0.0110506 -0.109947 0.0538329 0.122916 
3321 1 0.0505592 -0.0722611 -0.0391821 0.0965046 
2961 1 0.103484 -0.00720828 -0.125691 0.16297 
3393 1 0.069551 0.0361129 -0.0321492 0.0847057 
901 1 -0.0656203 -0.143748 -0.135752 0.208322 
4309 2 -0.0820449 -0.017926 -0.00987666 0.0845592 
392 1 -0.10464 -0.0486733 -0.011912 0.11602 
436 1 0.0778663 -0.110334 0.0645479 0.149677 
792 1 -0.222174 -0.0789621 0.137738 0.273071 
3293 1 -0.182591 0.15622 0.0638837 0.248647 
3320 1 -0.0338757 -0.132138 0.189648 0.233612 
3095 1 0.102326 0.0405308 -0.0120454 0.110718 
318 1 -0.0711243 0.0691295 0.12632 0.160606 
3350 1 -0.0850188 -0.1477 0.150835 0.227585 
3314 1 -0.0671413 -0.0102699 -0.0796032 0.104643 
2861 1 0.0233099 0.0518507 0.113368 0.126823 
3180 1 -0.0895771 -0.0536275 -0.0492372 0.115431 
3150 1 -0.0663976 0.167229 0.109326 0.210538 
2479 1 0.172717 0.0312156 0.0247704 0.177255 
3664 2 0.309368 -0.0745153 0.183398 0.367282 
100 1 0.0456655 0.0639059 -0.0897067 0.119233 
3301 1 -0.0771674 -0.0690787 -0.0591311 0.119261 
4056 2 -0.365997 -0.0448625 0.18158 0.411021 
4116 2 -0.179938 -0.0969145 0.0208448 0.205438 
468 1 0.0930616 0.0577326 0.184617 0.214655 
3434 1 -0.0778933 -0.116392 0.112931 0.17991 
1324 1 -0.05861 0.0948244 -0.0221176 0.113649 
155 1 -0.219096 0.122763 -0.0660464 0.259684 
221 1 -0.0146365 0.105911 0.00239466 0.106945 
4271 2 0.0627208 0.0530479 0.0374008 0.0902596 
1172 1 0.0851501 -0.140878 0.0490841 0.171774 
652 1 0.148972 -0.0532915 0.0741408 0.174727 
3568 2 0.0471532 -0.162006 -0.0630891 0.180138 
3433 1 0.13299 -0.0487508 -0.100075 0.17343 
3419 1 0.0462471 0.0464916 0.183688 0.195043 
248 1 0.0107157 0.0199505 -0.0125565 0.0258943 
3560 2 0.0339369 0.0138677 0.0367076 0.0518794 
1304 1 0.247342 -0.0392924 -0.0160345 0.250956 
208 1 -0.0776375 0.0660749 -0.0569253 0.116765 
917 1 -0.0160649 -0.033938 -0.016226 0.0409042 
2969 1 0.0452538 0.0205392 0.183606 0.190213 
325 1 0.028601 0.0112518 0.0274188 0.0411875 
292 1 0.00458695 -0.0136516 0.111248 0.112176 
3444 1 0.192333 -0.029468 0.0127661 0.194995 
908 1 0.268441 -0.121733 0.0439221 0.298008 
3504 2 0.211795 -0.00803139 0.19072 0.285124 
423 1 0.144675 0.00543208 -0.0589142 0.156305 
502 1 0.0632109 0.0953924 0.0865164 0.143459 
3435 1 0.0781434 0.109866 0.236398 0.272141 
430 1 -0.149826 -0.0358364 0.114449 0.191913 
439 1 0.184178 0.0315586 0.0991857 0.211554 
3331 1 0.0141526 0.00690668 0.214936 0.215512 
4182 2 -0.213975 -0.489588 0.0757173 0.539643 
874 1 0.232081 -0.00850154 0.0652907 0.24124 
980 1 0.0467625 -0.214426 0.2256 0.314739 
810 1 0.0988335 0.0730173 -0.00448102 0.122962 
3312 1 0.0913736 -0.0789189 0.145475 0.189051 
3383 1 0.00451278 0.136089 0.123607 0.183901 
225 1 0.0961671 -0.0434802 0.109021 0.151738 
4280 2 0.144904 0.216194 -0.125276 0.288844 
416 1 0.0343488 -0.163227 0.0819906 0.185864 
365 1 0.13298 0.0268444 0.0498266 0.144523 
3799 2 0.226823 -0.151352 -0.136782 0.305066 
2819 1 0.0918215 -0.169983 0.200948 0.278757 
382 1 0.0234794 0.14982 0.0407645 0.157032 
404 1 -0.00586222 -0.0643711 0.0275503 0.070264 
2776 1 0.0134959 0.0974422 0.176946 0.202453 
2973 1 -0.247931 -0.121109 0.136967 0.308054 
957 1 0.0508113 -0.0228454 -0.0275941 0.0621702 
795 1 0.0442401 -0.0962891 0.131497 0.168879 
490 1 0.104829 0.147779 0.0124527 0.181612 
3266 1 0.0461978 0.0663708 0.0311512 0.0866587 
4285 2 0.137451 0.278564 0.062329 0.316821 
496 1 -0.212197 0.068536 0.051922 0.228955 
2993 1 -0.0257319 0.163033 0.21661 0.272327 
4256 2 -0.0876716 0.0926713 0.0768668 0.148939 
471 1 -0.117181 0.120367 -0.00329853 0.168019 
517 1 0.120671 0.0425958 0.0916214 0.157386 
279 1 -0.0170327 0.303492 0.154593 0.341023 
4264 2 0.196602 -0.108786 0.141191 0.265371 
3420 1 5.57893e-05 -0.0164254 -0.0126155 0.0207111 
4028 2 -0.102508 -0.069853 0.147002 0.192346 
771 1 -0.0586319 0.043069 0.147982 0.164898 
3322 1 -0.0483989 0.302574 0.161051 0.346166 
3863 2 -0.138384 -0.0689112 0.0711243 0.170169 
274 1 -0.209791 -0.0524248 -0.00182637 0.21625 
1091 1 -0.0850157 0.0689204 0.0911469 0.142427 
3396 1 -0.0363899 -0.00984139 0.0476435 0.0607535 
699 1 -0.0705969 0.0998469 -0.064197 0.138111 
329 1 -0.284534 0.0998537 -0.0750892 0.310755 
2545 1 -0.14792 -0.0365794 -0.0618418 0.164447 
3327 1 -0.107659 0.116011 -0.00525732 0.158356 
3674 2 -0.130668 -0.04911 0.145048 0.201308 
1418 1 -0.00240318 0.10181 0.0219722 0.104181 
443 1 -0.0746893 0.0124552 -0.05506 0.0936227 
855 1 -0.154518 0.10559 -0.309337 0.361544 
3082 1 0.0730305 0.0781841 -0.137177 0.173965 
3476 2 -0.0313938 0.128142 0.238568 0.272617 
2869 1 0.026011 -0.029352 -0.123736 0.129802 
4307 2 -0.0954856 -0.139551 -0.0456837 0.175154 
177 1 -0.0860129 0.213292 0.100911 0.251147 
363 1 -0.0745527 0.079037 -0.00213594 0.108672 
1450 1 -0.0810944 0.111094 -0.0441701 0.144462 
3559 2 0.00196759 0.116658 0.0229284 0.118906 
347 1 0.0907422 0.116932 0.0904493 0.17346 
4237 2 0.108889 0.0309164 -0.0326475 0.117807 
319 1 -0.117112 0.131607 0.113276 0.209445 
830 1 -0.0806723 0.0963808 -0.0387696 0.131531 
295 1 0.0207567 -0.0884146 -0.0355326 0.097522 
937 1 0.0615055 0.00882542 0.0568268 0.0842027 
268 1 -0.0118099 0.0991896 0.109466 0.148192 
854 1 0.0183836 0.113739 0.132028 0.175231 
442 1 -0.0789627 -0.0276054 -0.00845761 0.0840756 
875 1 0.125123 0.057552 0.118189 0.181485 
501 1 0.0729208 0.025038 0.133047 0.153772 
3378 1 -0.00404914 0.120083 0.14029 0.184709 
3291 1 0.181317 0.0589143 0.0625094 0.200634 
314 1 -0.120927 0.0147943 0.153925 0.196303 
474 1 -0.222296 0.0762706 -0.2035 0.310878 
3070 1 0.117123 0.024208 0.0166633 0.120753 
964 1 -0.237385 0.0857086 0.0130806 0.252723 
793 1 -0.220801 0.0357948 -0.00697368 0.223792 
3397 1 -0.185412 0.0103461 -0.0363673 0.189228 
899 1 -0.0656801 0.000413081 0.0896695 0.111152 
1337 1 -0.166973 -0.0189119 0.157244 0.230138 
3278 1 -0.0558666 -0.102381 -0.111465 0.16133 
3544 2 -0.0150747 -0.094761 0.0455594 0.106219 
1430 1 -0.0697519 -0.0675275 0.153309 0.181463 
3200 1 -0.0357665 0.0498672 0.148738 0.1609 
757 1 -0.108187 0.0349767 0.085724 0.142395 
822 1 0.0824354 -0.0757258 0.216339 0.243583 
483 1 0.0281424 -0.0137508 0.0835422 0.0892209 
1289 1 0.0417476 -0.0114859 0.103501 0.112193 
1354 1 -0.181039 0.0415014 0.204667 0.27638 
3240 1 -0.124434 0.0167898 0.0735866 0.145536 
113 1 0.160508 0.00201673 0.147988 0.218328 
504 1 -0.0695675 0.0233699 0.186614 0.200526 
2795 1 -0.117833 -0.00894357 0.184797 0.21935 
781 1 -0.0390732 -0.136065 0.149388 0.205809 
581 1 -0.102808 0.00149671 0.0963107 0.140881 
3541 2 -0.0662776 0.0742999 0.0187803 0.101321 
786 1 0.118041 -0.0926884 0.107531 0.184629 
800 1 0.0788533 -0.0845808 -0.105568 0.156577 
367 1 0.0962976 0.00867155 0.181626 0.205758 
2687 1 0.0779355 -0.0773179 0.0181055 0.111265 
3545 2 0.061315 0.00945926 -0.124455 0.139062 
491 1 0.033864 0.0949678 0.0190803 0.102614 
840 1 -0.154093 -0.0597005 -0.0341821 0.168752 
187 1 -0.151833 -0.0112904 0.17031 0.228443 
2814 1 -0.0205863 0.107251 -0.0544546 0.122032 
1723 1 0.0814481 0.0250438 -0.181982 0.200944 
3264 1 0.223704 -0.0856593 0.02712 0.241074 
440 1 -0.041712 0.125078 0.0829556 0.155776 
431 1 -0.000988545 -0.111708 0.0490436 0.122004 
402 1 0.0761057 -0.248714 0.276235 0.379416 
968 1 -0.0647605 -0.106029 0.0619125 0.138813 
801 1 -0.1499 -0.264694 -0.0395807 0.306757 
2656 1 0.0540887 0.0888635 -0.0932206 0.139687 
421 1 -0.140852 -0.111241 -0.234065 0.294958 
4152 2 -0.124711 0.227376 -0.0376329 0.262048 
461 1 -0.213447 0.212198 0.0833126 0.312296 
647 1 0.0563159 0.00879204 0.151748 0.1621 
3436 1 -0.134307 0.0617006 0.194683 0.244431 
3371 1 -0.0580508 0.133731 -0.0673495 0.160592 
486 1 -0.125571 0.159111 0.162553 0.259823 
308 1 -0.155793 -0.0530537 -0.118927 0.203051 
307 1 -0.0410445 -0.0294994 0.0142636 0.0525197 
85 1 0.105749 -0.0961357 0.0930188 0.170521 
4143 2 -0.222674 -0.160211 0.136313 0.306321 
2873 1 -0.136267 -0.107698 0.0597053 0.183663 
2884 1 -0.105788 -0.0287874 0.114491 0.158518 
3339 1 -0.147567 -0.0182738 0.109499 0.184662 
3487 2 0.0360051 0.0114284 0.0353634 0.051745 
4298 2 -0.0328349 -0.150993 0.0134077 0.155103 
1254 1 -0.0296882 0.0479361 -0.00118892 0.0563974 
3380 1 0.111762 -0.132407 0.207541 0.270362 
4154 2 0.0848638 0.140224 -0.19485 0.25462 
22 1 0.0149285 -0.0239242 0.0820657 0.0867757 
3535 2 0.101067 0.153917 0.00974929 0.184391 
819 1 -0.000411687 -0.0737495 -0.0110032 0.074567 
107 1 -0.0517652 -0.00588441 0.0122424 0.0535176 
128 1 0.0509932 0.174784 0.00200085 0.182082 
907 1 -0.139217 -0.120716 0.0169462 0.185043 
1641 1 -0.134147 0.0603397 -0.017345 0.148112 
885 1 0.0247685 -0.106346 -0.330178 0.347765 
1300 1 0.000641332 -0.103788 -0.0550458 0.117483 
1934 1 0.064865 -0.0693337 -0.00783855 0.0952685 
891 1 -0.113866 -0.15869 0.054808 0.202859 
3778 2 -0.145783 -0.0634401 -0.0158326 0.159774 
1269 1 -0.12311 -0.229712 0.134345 0.293211 
1535 1 0.0798681 -0.0204864 0.0759271 0.112087 
573 1 0.0307131 0.0174171 0.105075 0.110848 
3844 2 0.0368392 0.0163664 -0.176625 0.181166 
631 1 0.077003 -0.00564987 0.21391 0.227418 
606 1 -0.0315825 0.0940235 0.295767 0.311955 
3600 2 0.0736392 0.0300567 -0.0227353 0.0827226 
627 1 -0.0313912 0.00168619 -0.00338258 0.0316179 
1474 1 0.00844008 0.0119719 0.232813 0.233273 
1569 1 -0.0389532 -0.112882 0.0129992 0.12012 
63 1 -0.116662 0.0586613 0.0804154 0.153355 
577 1 -0.127424 -0.0448146 0.179822 0.224903 
565 1 -0.0186841 -0.0418959 0.128219 0.136178 
3616 2 -0.139941 0.0649819 0.123348 0.197538 