ITEM: TIMESTEP
10000
ITEM: NUMBER OF ATOMS
4320
ITEM: BOX BOUNDS pp pp pp
0.0000000000000000e+00 1.9309999999999999e+01
0.0000000000000000e+00 1.9309999999999999e+01
0.0000000000000000e+00 9.6549999999999994e+00
ITEM: ATOMS id type c_displacement[1] c_displacement[2] c_displacement[3] c_displacement[4] 
3196 1 -0.326593 0.05768 -0.225599 0.401104 
381 1 -0.168996 0.0451604 0.256113 0.31015 
327 1 0.138517 0.131826 0.114542 0.222901 
484 1 -0.102697 0.158758 0.0019034 0.189089 
728 1 -0.0308094 0.019517 0.188304 0.191804 
303 1 0.0800725 -0.188844 -0.366836 0.420288 
3460 2 0.107879 0.000271416 -0.0346087 0.113295 
59 1 0.101923 0.0143964 -0.0244245 0.105793 
608 1 0.0288874 0.103589 -0.0344274 0.112918 
1454 1 -0.0943252 -0.0827119 -0.114184 0.169636 
2945 1 -0.0199238 0.164481 -0.0614754 0.17672 
3230 1 0.0848795 0.0177051 -0.0884201 0.123839 
3651 2 0.127518 0.137938 -0.242745 0.306941 
66 1 0.0893352 0.0780896 -0.291502 0.314725 
400 1 0.0569499 0.128465 -0.0783594 0.160893 
677 1 -0.0415616 -0.063674 0.036114 0.0841782 
87 1 0.0832456 0.116345 -0.0693563 0.158985 
3346 1 0.0250023 0.0336938 -0.0536175 0.0680825 
1133 1 0.244811 -0.0903796 -0.0375418 0.263648 
727 1 0.185482 0.0116799 -0.362103 0.407012 
688 1 0.126284 0.162495 -0.0777043 0.219978 
58 1 0.100562 0.0034711 -0.157247 0.186685 
3514 2 -0.000882503 0.221232 -0.288636 0.36367 
18 1 0.227324 0.123513 -0.100751 0.277637 
190 1 -0.140828 0.0934447 -0.162147 0.234214 
298 1 0.062064 0.0395651 -0.116548 0.137843 
3618 2 0.0353371 0.0652411 -0.0703434 0.102241 
106 1 -0.195159 0.0211157 0.00592916 0.196388 
217 1 -0.0726778 -0.00699568 0.0397295 0.083123 
775 1 0.0242576 0.106052 0.0219095 0.110975 
3627 2 -0.0202258 0.285884 0.0239089 0.287594 
180 1 -0.00278818 0.145076 0.019097 0.146354 
546 1 -0.163915 0.138609 0.0331297 0.217205 
3608 2 0.16545 -0.0930733 -0.0597524 0.199014 
96 1 0.178802 0.00766064 -0.117901 0.214311 
3118 1 -0.0190153 0.157664 0.0202343 0.16009 
562 1 0.0686252 -0.0576556 0.0238535 0.0927501 
70 1 -0.0189429 0.175803 0.10843 0.207419 
121 1 0.0576263 0.209022 0.0571175 0.224218 
1118 1 -0.0184149 -0.00605812 0.117715 0.119301 
4214 2 0.15899 -0.142992 0.000374024 0.213833 
65 1 0.0180934 0.0569054 0.0714693 0.0931314 
226 1 0.181978 0.0736031 0.132777 0.236988 
532 1 -0.153513 0.0964044 -0.00491912 0.18134 
3578 2 0.106571 0.0824766 0.383596 0.406578 
473 1 -0.0658336 0.00526037 -0.149358 0.163308 
246 1 0.00338123 0.0541081 -0.0082869 0.0548433 
817 1 0.180478 -0.033919 0.277645 0.332881 
4071 2 -0.0261125 0.0572463 0.232394 0.240761 
2838 1 -0.0235718 0.197703 0.0538875 0.206267 
536 1 0.0732976 0.0132026 -0.0159078 0.0761571 
894 1 -0.14326 -0.051116 -0.130676 0.20053 
289 1 0.00601523 -0.126682 0.144439 0.192216 
351 1 -0.117211 0.0948226 -0.0639493 0.163766 
3135 1 -0.0289971 0.12747 -0.141944 0.19297 
737 1 0.146145 0.16799 -0.409897 0.46647 
1415 1 0.165895 0.163044 -0.201202 0.30755 
527 1 -0.285949 -0.0250653 -0.179418 0.338506 
3002 1 -0.107961 0.0257818 -0.138208 0.177261 
3189 1 0.332114 0.00995666 -0.0129386 0.332515 
712 1 -0.00372842 -0.0430344 -0.0384535 0.0578319 
718 1 -0.129799 -0.114036 0.0680287 0.185688 
3469 2 0.181982 -0.0145189 -0.129446 0.223796 
3916 2 -0.409929 -0.173398 -0.0443749 0.447301 
110 1 0.0539925 0.0165877 -0.114206 0.12741 
4177 2 0.262796 -0.424919 0.0205676 0.500041 
93 1 0.039473 0.127675 0.0275795 0.136454 
569 1 0.15893 0.0969626 -0.0953302 0.209161 
639 1 -0.0457443 0.0462145 0.00330743 0.0651096 
21 1 -0.0569663 -0.0406882 -0.0808482 0.106944 
3353 1 -0.0696834 -0.11865 -0.110607 0.176544 
167 1 -0.0332417 0.0741901 0.0528346 0.0969571 
823 1 0.065231 0.00782393 0.0378758 0.0758345 
2596 1 -0.036035 -0.178007 -0.0158827 0.182311 
50 1 0.0267284 -0.126104 -0.0220252 0.130774 
2495 1 0.101756 0.0105294 -0.00604445 0.102478 
28 1 -0.111974 0.0750652 -0.0299814 0.138101 
3055 1 0.0915738 -0.0407695 -0.0270659 0.103829 
12 1 0.203874 0.0201359 -0.0819279 0.220641 
738 1 0.0611758 -0.202685 -0.0430136 0.216041 
210 1 0.235989 0.00240785 0.1159 0.262925 
232 1 0.00109222 0.120036 -0.0232871 0.122279 
4170 2 -0.0397389 -0.1613 0.287766 0.332274 
2453 1 0.0331077 -0.00832871 0.158855 0.162482 
3167 1 0.176499 -0.147014 0.0597982 0.237362 
339 1 0.132195 0.167076 -0.00463969 0.213099 
390 1 0.179296 0.0199222 0.0898633 0.201542 
203 1 0.0344378 -0.0632112 -0.0264356 0.0766842 
3582 2 0.12878 0.210803 -0.0138957 0.247417 
3632 2 -0.0263861 0.0491549 -0.0908723 0.106631 
231 1 0.0290862 -0.00390156 0.0956697 0.10007 
323 1 0.0322104 0.0292062 -0.0875573 0.0977589 
3244 1 0.138203 0.150972 -0.0642022 0.21451 
118 1 0.0886333 0.0211928 -0.0234402 0.094098 
4053 2 0.104231 0.106778 -0.00293315 0.149245 
2936 1 0.134497 0.0812149 -0.136341 0.208024 
2960 1 -0.349627 -0.158898 -0.203512 0.434632 
2735 1 0.039916 -0.0365595 0.0256403 0.0598942 
29 1 -0.000553696 0.113089 -0.114411 0.16087 
753 1 -0.030245 -0.234215 -0.105247 0.258551 
3467 2 -0.415112 0.188983 0.312688 0.552998 
553 1 -0.352493 0.116293 -0.513673 0.633747 
3251 1 -0.130026 -0.0390867 -0.319561 0.347209 
2768 1 0.117232 0.0696402 -0.171356 0.218988 
4228 2 0.109555 0.0213063 -0.261802 0.284599 
437 1 0.287667 0.088939 -0.316017 0.436497 
53 1 0.206985 0.100514 -0.305917 0.382793 
593 1 -0.0359661 0.165456 0.104378 0.198907 
609 1 0.300822 0.00813584 -0.327235 0.444571 
3040 1 -0.0155157 0.109484 -0.243932 0.267825 
725 1 0.0305787 0.00385349 -0.0715173 0.0778758 
610 1 0.262413 0.015566 0.00404531 0.262905 
89 1 0.0180403 0.0308085 -0.0648844 0.074058 
3149 1 0.0158304 -2.59392e-05 0.0622228 0.0642049 
550 1 0.0378726 -0.097707 -0.0800559 0.131871 
147 1 0.114994 -0.0722643 -0.0483178 0.144154 
247 1 0.103403 -0.040137 0.0307168 0.115094 
215 1 0.0248931 0.0502718 0.0904556 0.106438 
3554 2 0.0777588 -0.0676055 -0.0515988 0.115236 
3786 2 0.0448674 0.0558476 -0.116901 0.137105 
5 1 0.112479 0.0612409 -0.00665005 0.128243 
2591 1 0.10862 -0.0341505 -0.0877523 0.143754 
3232 1 0.03717 -0.0753394 -0.0350587 0.0910316 
1215 1 0.0526667 -0.101848 0.0818664 0.140886 
859 1 0.20999 -0.00747357 -0.0829791 0.225914 
3152 1 -0.0496977 -0.017278 -0.137534 0.147255 
151 1 0.170809 -0.0336354 0.0489802 0.180848 
3743 2 0.0243797 0.160006 -0.0202196 0.163111 
3023 1 0.0247804 0.180004 -0.0687909 0.194287 
2461 1 -0.0765931 -0.004784 -0.116758 0.13972 
988 1 0.104657 -0.00772166 -0.108008 0.150594 
23 1 0.0845601 -0.0749128 -0.153222 0.190366 
3730 2 0.0626235 0.0873563 -0.091173 0.140944 
43 1 0.161648 -0.0580765 -0.111315 0.204681 
4289 2 -0.00637788 0.0578778 0.0229656 0.0625934 
197 1 -0.171547 0.275829 -0.115421 0.34472 
3611 2 0.0605339 -0.188135 0.0139085 0.198123 
3478 2 0.18563 0.0618406 0.0854909 0.213522 
424 1 0.102888 0.0990227 -0.0128951 0.14338 
3199 1 0.116415 0.0463631 -0.14215 0.189496 
3006 1 0.0670143 -0.039835 0.0491214 0.0921448 
623 1 0.0345814 0.0369551 -0.163901 0.171538 
78 1 0.0897197 0.121512 -0.00377522 0.151093 
4034 2 0.0743324 0.054629 -0.0451088 0.102686 
3586 2 0.0402625 -0.0370324 0.0987048 0.11285 
1178 1 0.0289819 0.105858 -0.0168688 0.111043 
949 1 -0.0721936 0.0255214 -0.0832953 0.113143 
3393 1 -0.0552035 -0.0685608 0.00874327 0.0884559 
155 1 -0.442622 0.0866009 0.0210617 0.451506 
389 1 0.179304 -0.205142 -0.0838203 0.28506 
2500 1 0.039022 -0.0048929 -0.102592 0.109872 
3188 1 0.119266 0.409985 -0.162155 0.456734 
529 1 -0.236997 -0.249365 -0.291706 0.451046 
825 1 0.05351 0.177878 0.0442256 0.190945 
140 1 -0.0951705 -0.223225 0.0473841 0.247249 
2931 1 -0.0279401 0.0158419 0.0966583 0.101855 
559 1 -0.106511 0.0994771 -0.166963 0.221624 
691 1 -0.246791 -0.539466 -0.0139801 0.593401 
354 1 0.0659747 -0.0138773 0.033023 0.0750717 
3464 2 -0.288156 -0.666511 -0.12694 0.737147 
1179 1 0.115947 0.0129197 -0.10311 0.155699 
1331 1 -0.241642 -0.189227 0.333303 0.453088 
1480 1 -0.23818 -0.330951 0.0924938 0.418107 
2968 1 0.327115 -0.173622 0.000130803 0.370336 
98 1 0.196288 -0.304495 -0.0887401 0.372989 
103 1 -0.0904708 0.0237188 -0.0686936 0.116045 
216 1 -0.0207746 -0.0675488 -0.0794072 0.106301 
446 1 -0.0177738 -0.0761364 0.144892 0.16464 
2981 1 0.0360234 -0.0683131 -0.106631 0.131661 
40 1 0.14681 -0.0360388 -0.0671952 0.16543 
1130 1 -0.0623216 -0.113692 -0.0715382 0.14808 
3041 1 -0.0336403 -0.385661 -0.213037 0.441872 
604 1 0.0828804 0.0920677 0.00494487 0.123976 
721 1 -0.171293 -0.165806 -0.353841 0.426657 
3491 2 -0.237405 0.286728 -0.563005 0.674944 
3164 1 0.149632 0.104555 -0.14286 0.231798 
249 1 -0.195903 -0.168779 0.00697825 0.258675 
64 1 0.0326211 -0.128481 -0.191939 0.233264 
193 1 0.0203017 0.0390995 -0.062717 0.0766444 
44 1 0.0579497 -0.135315 -0.0036658 0.147247 
2996 1 0.119541 0.0103136 -0.0586914 0.13357 
4212 2 0.0969553 0.00704027 -0.0260697 0.100646 
3279 1 0.0585207 -0.0381952 0.00133842 0.0698951 
178 1 0.0777279 -0.0686114 -0.0875014 0.135667 
330 1 -0.00330059 0.117282 -0.00909203 0.11768 
3643 2 0.14279 -0.124186 -0.061392 0.198948 
3841 2 -0.0640562 -0.103512 -0.0114816 0.122269 
233 1 0.214834 -0.120453 0.25178 0.352216 
600 1 -0.0681538 -0.0461114 -0.0510625 0.096843 
338 1 -0.0884641 -0.135691 0.11648 0.199513 
4101 2 0.0909182 -0.0622731 0.0351256 0.115663 
3216 1 0.0783986 -0.0343113 -0.106035 0.136261 
3493 2 0.20205 -0.0682803 0.298053 0.3665 
4217 2 0.00819935 -0.0745781 0.0134233 0.0762188 
479 1 -0.183584 0.0148915 0.185367 0.261315 
3335 1 -0.157379 -0.112119 -0.091452 0.213781 
1457 1 0.00519513 -0.0371611 -0.0654057 0.0754046 
3037 1 0.0154543 0.143007 -0.0533006 0.153397 
4253 2 0.131002 0.0264125 -0.000833667 0.133641 
387 1 0.106663 0.0112752 0.0232914 0.109757 
3736 2 -0.0955683 0.355876 0.0788991 0.376837 
2494 1 0.0774598 -0.0430374 -0.159849 0.182768 
174 1 -0.0321356 0.00316069 -0.0265377 0.0417964 
717 1 -0.0215361 -0.14879 0.169972 0.22692 
508 1 -0.0550398 -0.0741157 0.0722146 0.117207 
3537 2 0.217743 0.0599687 -0.0458131 0.23045 
747 1 -0.101843 -0.0399391 0.0585667 0.124086 
497 1 -0.0299678 -0.142028 0.012283 0.145674 
958 1 -0.0628737 -0.318798 0.0320279 0.326514 
3130 1 0.018004 -0.0344046 -0.24127 0.244375 
4163 2 -0.174257 -0.0173753 0.135479 0.221409 
3394 1 -0.0403893 -0.105238 -0.0172723 0.114038 
3830 2 -0.307805 -0.121106 -0.0186727 0.3313 
133 1 0.0840544 0.0065835 -0.128782 0.153926 
4204 2 -0.0570394 -0.0893048 -0.074831 0.129725 
86 1 0.305474 0.0892447 -0.223622 0.388955 
759 1 -0.0939252 -0.23246 -0.177577 0.307235 
3411 1 -0.0790023 0.0487409 0.0488576 0.1049 
835 1 -0.175218 0.19493 -0.104278 0.282086 
3057 1 0.399448 0.213038 -0.198132 0.494166 
3620 2 0.0427315 0.557627 -0.0162968 0.559499 
241 1 0.0353841 -0.0178638 -0.0552405 0.0679902 
704 1 0.10489 0.33786 -0.290335 0.457652 
157 1 0.0964033 0.257525 -0.017331 0.275523 
54 1 0.121095 0.231512 -0.290316 0.390571 
493 1 0.0947814 0.222856 -0.0824251 0.255817 
204 1 -0.0454798 0.0966541 -0.142114 0.177783 
254 1 0.144629 0.172182 -0.00867684 0.225033 
3599 2 -0.00132453 0.195111 0.0330877 0.197901 
3518 2 -0.294767 0.123644 -0.0158733 0.320042 
67 1 0.0803788 0.316724 -0.0761394 0.335517 
2988 1 0.000108056 0.0893589 -0.21351 0.231455 
3030 1 -0.0683206 0.202861 -0.0528258 0.220479 
4050 2 0.0164439 0.0648043 -0.0260913 0.0717688 
540 1 -0.0268921 0.0494652 -0.140564 0.151421 
3479 2 -0.0487404 0.183076 6.1449e-05 0.189453 
234 1 0.165672 -0.156972 -0.0203032 0.229128 
1036 1 0.176231 0.0507093 -0.0205932 0.184535 
3369 1 -0.00414247 0.0336847 0.0615159 0.0702569 
3607 2 0.0710315 0.102388 -0.189106 0.226473 
3139 1 0.215607 -0.118623 0.0591065 0.253084 
644 1 -0.0971494 -0.121575 0.058416 0.166226 
4269 2 -0.0384866 0.0312178 0.155674 0.163371 
3003 1 -0.0729611 -0.103138 -0.198886 0.235619 
563 1 -0.122336 0.155982 -0.010441 0.198508 
214 1 0.0805423 0.0790204 0.0766138 0.136385 
640 1 -0.0396239 -0.012093 0.059799 0.0727476 
199 1 -0.0136657 -0.0322045 0.0889862 0.0956161 
245 1 -0.0217628 -0.10426 0.0869543 0.137494 
2758 1 -0.0727291 0.0181915 0.0355892 0.0829882 
3056 1 -0.0494329 -0.0945007 0.0169752 0.107991 
3468 2 -0.151874 0.0227163 0.115674 0.192255 
4089 2 0.10647 0.107237 0.095842 0.178945 
920 1 -0.115301 0.0615694 -0.0938087 0.160888 
75 1 0.205127 0.119901 0.106592 0.260413 
2684 1 -0.251055 0.150043 -0.32737 0.438991 
3096 1 -0.197417 0.221745 -0.150338 0.332785 
240 1 0.060355 0.212619 -0.238686 0.325301 
181 1 -0.249783 0.0618259 -0.0816672 0.269969 
46 1 0.062673 -0.289045 0.0463253 0.299367 
3211 1 0.0598379 0.117336 0.174777 0.21885 
3603 2 -0.0656704 -0.407487 0.258782 0.487161 
2939 1 -0.211161 0.108722 -0.174999 0.295016 
1102 1 0.08391 0.63377 -0.500694 0.812034 
3701 2 0.388081 0.131598 -0.264034 0.487482 
3513 2 -0.0452725 -0.230693 -0.0949472 0.253542 
312 1 0.299724 -0.0368785 -0.324349 0.443167 
587 1 0.0314248 0.130979 -0.0461839 0.142393 
135 1 -0.146349 -0.125513 -0.0861553 0.211174 
3512 2 0.00501057 0.160227 -0.0995979 0.188726 
134 1 0.0812397 0.0359484 0.0218944 0.0914961 
191 1 0.0122238 0.0704505 -0.0826867 0.109315 
257 1 0.0434384 0.0514849 -0.141302 0.156537 
195 1 0.103188 0.0310512 -0.112141 0.155523 
2995 1 0.0498748 -0.129122 -0.270585 0.303935 
685 1 0.154498 0.0565679 -0.136966 0.214077 
602 1 -0.0329822 0.0904544 -0.073362 0.121045 
3092 1 0.0283647 0.120935 -0.0999777 0.159454 
4195 2 0.00799047 0.0682099 -0.256938 0.265957 
3679 2 -0.391786 0.114616 -0.0665901 0.413603 
2977 1 0.0575888 0.0385241 0.00696474 0.0696354 
2004 1 -0.0519252 0.0821529 -0.0663883 0.117698 
674 1 0.0120343 -0.00233208 -0.215188 0.215537 
182 1 0.0344986 0.15858 -0.192821 0.252027 
427 1 -0.088141 -0.0676354 -0.145403 0.18299 
4173 2 -0.085874 -0.0233011 -0.00563095 0.0891571 
2950 1 -0.0895078 -0.00695946 -0.088051 0.12575 
6 1 0.117086 0.077537 -0.0446653 0.147364 
690 1 -0.120742 0.0694971 -0.00193917 0.139328 
902 1 -6.46928e-05 0.149453 0.0445991 0.155966 
154 1 -0.0806914 -0.0153141 0.0640993 0.104184 
1278 1 0.0415522 -0.0155863 -0.0987762 0.108288 
3115 1 -0.187053 0.151048 0.0425693 0.244165 
742 1 0.201904 -0.0239291 -0.13169 0.24224 
2926 1 -0.118404 -0.00413633 0.185104 0.219773 
710 1 -0.042082 -0.1749 -0.11244 0.212141 
580 1 -0.239311 -0.0359835 0.242237 0.342408 
3408 1 -0.160996 -0.0701973 0.0572154 0.184719 
95 1 -0.157713 -0.186627 0.0268235 0.24581 
80 1 -0.227191 0.0160002 -0.0496579 0.233104 
3010 1 0.060096 0.137428 0.000437336 0.149994 
3383 1 -0.0420174 -0.152991 -0.00244243 0.158675 
2873 1 -0.0634516 0.13336 0.220177 0.26512 
205 1 -0.277733 0.121547 0.210462 0.369058 
694 1 -0.343765 0.116026 0.0690937 0.369338 
861 1 -0.220638 0.0172386 0.102805 0.244023 
3549 2 -0.227808 0.00355434 0.0988521 0.248356 
3401 1 -0.100306 0.126008 0.0657089 0.173945 
1077 1 -0.0826156 0.134968 0.173511 0.234836 
4257 2 0.56591 0.336522 -0.162656 0.678202 
353 1 0.0378533 -0.103473 0.039199 0.116945 
483 1 -0.0838059 -0.13436 0.192136 0.248983 
3257 1 -0.081387 -0.104949 -0.185997 0.228545 
635 1 -0.11894 -0.205427 -0.0948274 0.255616 
512 1 -0.161237 0.115573 0.126953 0.235524 
300 1 0.00734403 0.0145673 0.0988729 0.10021 
393 1 0.00828819 -0.0379938 -0.0530432 0.0657708 
2740 1 -0.0239715 0.104668 0.00395948 0.107451 
4006 2 -0.191355 -0.0773789 0.170196 0.267528 
3341 1 -0.182636 0.120289 0.0240312 0.220007 
886 1 -0.0629235 0.104229 0.125327 0.174729 
286 1 -0.17289 -0.18787 -0.0835125 0.268627 
3095 1 -0.36781 0.311574 0.0117772 0.482184 
3197 1 -0.134758 -0.12724 -0.0506579 0.192136 
277 1 -0.0438707 -0.0479987 0.0452359 0.0792137 
364 1 -0.0566662 -0.0612351 0.162327 0.182513 
1367 1 -0.103584 -0.0234475 -0.033069 0.111234 
411 1 -0.174123 0.158319 0.0910705 0.252344 
614 1 0.111079 0.0523354 0.0156073 0.123779 
3404 1 0.0448652 -0.106356 0.0373972 0.121339 
3094 1 0.077507 -0.157412 -0.0490848 0.182195 
3389 1 -0.0138403 -0.127833 0.0169819 0.129697 
1324 1 0.023352 -0.0394634 0.060521 0.0759306 
966 1 -0.0455597 0.0314868 0.10843 0.121754 
357 1 -0.282528 0.107924 0.184828 0.354444 
362 1 0.0343073 0.109813 0.0766712 0.138255 
478 1 -0.182066 0.175082 0.0213591 0.253491 
4159 2 -0.332183 0.405306 0.235205 0.574404 
2696 1 0.00579642 0.157408 0.0746342 0.174302 
3612 2 -0.0874058 0.166163 0.138605 0.233369 
903 1 -0.0342401 0.111509 -0.0942834 0.149987 
309 1 0.0294546 0.0648196 -0.0262681 0.0758892 
780 1 -0.0614574 0.0483913 -0.127526 0.149605 
2710 1 -0.0507908 -0.00849293 -0.10559 0.117478 
3313 1 -0.0261588 0.00149121 0.0294634 0.0394284 
924 1 0.0206639 0.0753768 0.0409113 0.0882179 
2365 1 -0.0880473 0.0447905 -0.0873364 0.131857 
4154 2 -0.318917 0.162291 0.0629505 0.363331 
3631 2 -0.0782928 0.0765764 -0.0115183 0.11012 
3333 1 -0.00487531 -0.0234587 -0.0566909 0.0615463 
3526 2 -0.0916088 0.169468 -0.166514 0.254634 
3337 1 0.0105294 0.0292888 -0.0581771 0.0659793 
3303 1 -0.0128632 0.108333 0.159468 0.193214 
3249 1 -0.0169259 0.035465 -0.0707217 0.0809062 
92 1 -0.0813491 -0.0395596 0.0893732 0.127162 
3379 1 -0.0291596 0.0409653 -0.0213003 0.054609 
228 1 -0.08403 -0.0944931 -0.025846 0.129066 
1449 1 0.053052 -0.11045 -0.0143741 0.123371 
1304 1 0.190301 -0.0481602 -0.0145953 0.196843 
3290 1 -0.0644026 0.073259 -0.0868068 0.130576 
3162 1 -0.0800049 0.0681022 0.054846 0.118519 
462 1 -0.137115 -0.102307 0.060974 0.181618 
2966 1 -0.0348517 0.0699393 -0.0907308 0.119742 
3022 1 0.047228 0.0462863 0.082306 0.10558 
750 1 -0.101165 -0.0193601 0.0180089 0.104564 
449 1 -0.119159 0.0920606 -0.0396199 0.155704 
100 1 -0.103848 0.000509216 0.0816595 0.13211 
3664 2 -0.129189 -0.106338 0.144058 0.220794 
763 1 0.129126 0.0797333 0.218141 0.265738 
3180 1 0.000335909 -0.0272266 0.068667 0.0738685 
3647 2 -0.281957 0.136302 0.0740371 0.321806 
2890 1 0.144574 0.102554 0.120831 0.214521 
1285 1 -0.0266012 0.218782 0.315295 0.384687 
3209 1 -0.130321 0.014369 -0.105906 0.168541 
943 1 0.0490161 0.03343 0.139304 0.151412 
3305 1 0.0707196 0.168439 0.0246862 0.184343 
3409 1 0.0903594 -0.0722802 -0.0681911 0.13431 
4318 2 -0.145938 -0.0366821 0.175383 0.23109 
356 1 0.0962156 -0.064368 0.0777538 0.13945 
3883 2 0.109014 0.131836 0.154495 0.230507 
3227 1 0.066898 -0.0534762 0.106145 0.136388 
373 1 0.17903 0.0160173 0.113816 0.212749 
4297 2 -0.14482 0.0108962 0.26603 0.30309 
3531 2 0.0506221 -0.163836 0.0473796 0.177904 
398 1 -0.19262 0.0124243 -0.00372609 0.193057 
291 1 0.111073 0.100852 -0.065864 0.163849 
2732 1 -0.038645 -0.154934 0.0243962 0.161534 
2961 1 -0.150389 -0.098395 -0.259859 0.315951 
3221 1 -0.182556 0.0968777 0.0363774 0.209846 
836 1 -0.238984 -0.163356 0.165237 0.333319 
394 1 0.132276 0.0765286 0.137658 0.205678 
412 1 -0.170778 0.0802153 0.0952719 0.211368 
1212 1 -0.073405 0.0134796 0.0766802 0.107004 
3573 2 0.0558591 -0.147135 0.0716825 0.172937 
3360 1 -0.312379 0.000392629 -0.0867929 0.324213 
3392 1 -0.0518464 -0.054431 0.0281687 0.0802762 
3319 1 -0.0401324 -0.0573956 -0.144959 0.16099 
3588 2 -0.0719692 -0.0507498 -0.0577118 0.105289 
306 1 -0.164874 0.161832 -0.0409908 0.234634 
3093 1 -0.196188 0.158627 -0.0907288 0.268111 
2745 1 0.101742 0.218948 0.0973822 0.260332 
355 1 -0.239827 -0.0201224 -0.117331 0.267747 
3097 1 -0.047543 0.131766 -0.132272 0.192662 
3482 2 -0.216458 -0.116833 0.0120304 0.24627 
3808 2 0.051006 -0.0168307 0.0775481 0.0943324 
3324 1 -0.143012 0.223316 0.153969 0.306641 
951 1 -0.108046 0.0154636 0.0375879 0.115438 
2737 1 0.003155 -0.15251 0.0648586 0.165759 
2959 1 0.0557655 0.111225 -0.176387 0.215855 
4284 2 -0.198211 0.162801 0.0653162 0.264685 
4225 2 -0.238197 0.264092 -0.222981 0.419766 
3483 2 0.139474 -0.0895808 0.0184837 0.166792 
2479 1 -0.224014 0.0860243 -0.216959 0.323503 
601 1 0.118804 0.172604 -0.06856 0.22047 
3617 2 0.0263849 0.0488321 -0.0432033 0.0703368 
206 1 0.13346 -0.0135532 -0.0437409 0.141098 
71 1 0.0657486 0.120865 0.110203 0.176284 
4185 2 0.177073 -0.00967741 -0.0208435 0.178558 
3561 2 0.113215 0.157371 -0.0591083 0.202675 
716 1 0.310177 0.0557686 -0.0969742 0.329733 
3150 1 -0.0420479 0.0630129 0.0368764 0.0842527 
3350 1 -0.0287503 -0.127518 0.117336 0.175656 
4239 2 0.733776 1.20964 -0.748988 1.60083 
3676 2 0.26528 0.0110123 0.00746803 0.265614 
388 1 0.0831108 0.0646595 0.251356 0.272522 
1313 1 0.153524 0.012887 0.00529775 0.154155 
444 1 0.105282 0.147033 0.0975487 0.205472 
3668 2 0.094625 -0.0502974 -0.115537 0.157584 
838 1 0.074921 0.0984355 0.0851788 0.150194 
460 1 0.16269 -0.038782 0.11026 0.200323 
499 1 0.12692 0.0974422 -0.0210834 0.161394 
3548 2 -0.593363 -0.286563 -0.0385049 0.660061 
4056 2 -0.304085 0.0322964 0.163715 0.346862 
3658 2 0.0518745 0.108273 0.183378 0.219184 
221 1 -0.123725 0.190047 0.0880237 0.243257 
3321 1 -0.00136747 -0.138155 0.0450621 0.145325 
482 1 0.0411812 -0.0570134 0.00837682 0.0708279 
1314 1 -0.0142358 0.140174 0.116836 0.183035 
3672 2 0.0854028 0.119963 0.0262238 0.149575 
375 1 0.126381 0.0224891 0.0176694 0.129576 
94 1 0.172218 -0.0646325 -0.0322147 0.186746 
37 1 0.0242479 -0.0756409 0.0881969 0.118694 
4309 2 -0.0683751 -0.00676425 0.143081 0.158723 
392 1 0.0323999 -0.0123128 0.0687349 0.0769795 
160 1 -0.148533 0.170769 0.0614907 0.234532 
436 1 0.0017653 -0.00698219 0.0219032 0.0230568 
792 1 -0.190401 -0.0483849 0.0849123 0.214018 
3293 1 -0.0893366 0.085851 0.071226 0.142915 
901 1 -0.142229 -0.0545401 -0.0813593 0.172694 
318 1 -0.075025 -0.0476104 0.159012 0.182155 
2861 1 0.023802 -0.130184 0.0271895 0.135106 
3320 1 -0.0418504 -0.147189 0.079719 0.172543 
3314 1 -0.134441 -0.0996398 -0.103627 0.196827 
626 1 0.0631311 0.00896519 0.114688 0.131222 
3535 2 0.0940132 0.0535874 -0.091537 0.141736 
3281 1 0.0546744 0.0128438 0.133464 0.144799 
4271 2 0.102797 0.0457629 0.0357226 0.118058 
1172 1 0.1584 -0.086438 0.0233298 0.181951 
652 1 0.0980854 -0.119785 0.0987792 0.183648 
3568 2 0.106211 -0.0560914 -0.0429067 0.127546 
3433 1 0.135063 -0.00877214 -0.0764083 0.155426 
3419 1 -0.0121905 0.117583 0.0949406 0.151618 
187 1 -0.146485 -0.0106331 0.360342 0.389124 
3223 1 -0.217937 -0.051168 0.0426001 0.22788 
3560 2 0.107759 -0.0337575 0.00871553 0.113259 
349 1 -0.0294653 -0.133152 -0.0640057 0.150646 
325 1 0.0687849 -0.0462119 0.062055 0.103526 
292 1 0.0138359 0.02987 -0.00694081 0.0336426 
3444 1 0.0903152 -0.0516019 0.0409314 0.111781 
908 1 0.149286 -0.127378 0.132185 0.23661 
3504 2 0.118792 -0.165782 0.0978571 0.226211 
423 1 0.204595 -0.0870911 -0.044604 0.22679 
502 1 0.0182666 -0.0585356 0.165769 0.176747 
3435 1 0.138848 -0.0911379 0.039859 0.170803 
402 1 0.0624024 0.111632 0.160808 0.205463 
3331 1 -0.199445 0.0117634 0.0202834 0.200818 
4182 2 -0.140944 -0.286769 -0.0154114 0.319905 
874 1 0.101814 -0.113521 0.213849 0.262649 
980 1 0.0336613 -0.200571 0.0722489 0.215828 
225 1 -0.00981855 -0.16725 0.129599 0.211813 
439 1 0.184873 -0.0308457 0.117902 0.221428 
4307 2 -0.08904 0.011123 -0.130285 0.158196 
810 1 0.141709 -0.00337042 0.0257317 0.144066 
430 1 -0.201451 -0.0367536 -0.0762131 0.218499 
4280 2 -0.021924 -0.0144677 -0.0542296 0.0602563 
416 1 -0.0748795 -0.1176 0.114839 0.180623 
365 1 -0.00191668 -0.0449525 0.00169633 0.0450253 
3799 2 0.0850268 -0.238719 -0.215883 0.332899 
2819 1 -0.022088 -0.0942298 0.148134 0.176949 
382 1 0.0226752 0.0522728 0.0201432 0.0604348 
295 1 -0.109818 -0.11613 -0.10259 0.189924 
4264 2 0.128001 -0.0277688 0.0529647 0.141282 
490 1 -0.0837903 -0.0108865 -0.155957 0.177375 
2776 1 0.0242752 0.0192592 0.233578 0.235624 
3266 1 0.139601 0.0278652 -0.10852 0.179001 
2973 1 -0.184712 -0.0934663 0.0657355 0.2172 
957 1 0.0929036 -0.127113 -0.198426 0.253302 
795 1 0.0838847 -0.06005 0.182251 0.209423 
419 1 0.359768 -0.450528 0.697174 0.904688 
3291 1 0.215224 -0.118858 0.11923 0.273248 
4256 2 -0.197364 -0.497116 0.194802 0.569232 
31 1 -0.0195427 0.0252156 -0.123811 0.127855 
4285 2 -0.0316642 0.377787 -0.328112 0.501381 
107 1 -0.311771 0.0567785 -0.11514 0.337168 
496 1 0.104227 -0.0438996 0.171961 0.205818 
2993 1 -0.293117 0.290974 -0.000177349 0.413017 
517 1 0.239652 -0.0444855 0.105762 0.265702 
279 1 0.00375501 0.276469 0.114193 0.299147 
248 1 0.164482 -0.0589449 -0.0136647 0.175258 
783 1 -0.35453 -0.062557 -0.0697402 0.3667 
647 1 0.178228 0.395287 0.0831931 0.441518 
917 1 -0.0327898 -0.127298 -0.0680401 0.148018 
3322 1 0.11847 0.163242 0.0899417 0.220845 
3863 2 -0.145265 -0.0116837 0.0576673 0.156729 
274 1 -0.0688228 -0.0723607 -0.0247996 0.102896 
1091 1 0.00682526 -0.0458526 0.0985308 0.108891 
3396 1 0.0989415 0.0012409 0.0677343 0.119912 
22 1 -0.012236 -0.0345255 0.00501018 0.0369706 
1354 1 -0.187858 -0.048755 0.220722 0.293914 
2545 1 -0.114503 -0.0403893 -0.0707101 0.140507 
3327 1 -0.077607 -0.0608154 0.033311 0.104072 
3674 2 -0.105105 0.0482618 -0.0237921 0.118077 
1418 1 0.180789 -0.0973612 -0.131236 0.243694 
443 1 -0.0553448 -0.055625 -0.066402 0.102793 
855 1 0.0579743 -0.112451 -0.0662219 0.142799 
699 1 -0.00757928 0.199353 0.113931 0.229737 
2869 1 -0.165591 -0.146124 -0.0245309 0.222204 
3476 2 -0.0662485 -0.148326 -0.14476 0.217589 
177 1 0.0191768 -0.0525902 -0.0234964 0.0607088 
363 1 0.0724405 -0.169045 -0.0746453 0.198484 
1450 1 -0.0585196 0.0479091 -0.00471427 0.0757763 
3559 2 0.0426153 0.048935 0.081571 0.104233 
347 1 -0.0856119 -0.0694545 -0.0845663 0.138942 
319 1 -0.224174 -0.0708005 -0.00775454 0.235216 
4237 2 0.0802074 -0.132603 -0.0449118 0.16135 
830 1 -0.030715 0.0551023 0.154234 0.166637 
937 1 0.0169293 -0.019827 0.0516708 0.0578756 
268 1 0.0389896 -0.0678668 0.0235693 0.0817411 
854 1 0.0409944 0.180577 0.08464 0.203599 
442 1 -0.166251 -0.214513 -0.0244724 0.272495 
501 1 0.0660724 -0.121564 0.284995 0.316805 
875 1 0.0796277 -0.123778 0.129975 0.196355 
471 1 -0.188696 0.25496 -0.272231 0.417996 
314 1 -0.100331 -0.0748302 0.185 0.223363 
3070 1 0.118068 0.0369009 -0.0891673 0.152488 
899 1 0.0703074 -0.152411 0.01412 0.168439 
474 1 -0.0937242 -0.0180595 -0.114769 0.149273 
964 1 -0.137663 -0.15351 -0.124153 0.240687 
793 1 0.0105045 -0.0194744 0.0657401 0.0693639 
3397 1 -0.0704572 -0.166755 -0.166307 0.245824 
822 1 0.23628 -0.0280375 0.177591 0.296906 
3278 1 0.0669605 -0.191121 -0.0853733 0.219772 
1337 1 0.0473497 -0.132347 0.0189645 0.141836 
3544 2 0.0232683 0.103456 0.0640928 0.123905 
1430 1 0.0342605 -0.184578 0.0632739 0.198107 
3200 1 0.112793 0.109086 0.0904486 0.181116 
757 1 -0.320202 -0.110804 0.0859821 0.349571 
329 1 -0.283568 0.0961214 -0.0958341 0.314379 
3380 1 -0.0174838 -0.0670787 0.111707 0.131468 
85 1 0.13138 -0.0266927 0.163177 0.211187 
3240 1 0.0218461 0.113203 0.192321 0.22423 
113 1 0.163435 -0.0317111 0.0662755 0.17919 
504 1 -0.0695929 -0.0550263 0.190562 0.210203 
781 1 0.0212766 -0.273349 0.0117895 0.274429 
1254 1 -0.158045 0.0380956 0.0907756 0.186198 
2795 1 -0.142834 0.0326519 0.142467 0.204363 
3082 1 0.0788466 -0.0416592 0.0247831 0.0925552 
581 1 -0.0877454 -0.0787743 0.0300231 0.12168 
3541 2 0.160596 -0.048104 0.0780927 0.184942 
786 1 0.136487 -0.175182 0.109852 0.247759 
800 1 -0.00931921 -0.20002 -0.057632 0.208366 
367 1 0.19798 -0.160515 0.108691 0.277083 
2687 1 0.00252113 -0.151447 -0.0102896 0.151817 
3545 2 0.0255013 -0.0562641 -0.0444531 0.0761054 
819 1 0.0029201 0.0686956 -0.0231984 0.0725656 
3192 1 -0.0659044 0.0252416 -0.0623094 0.0941434 
4028 2 -0.174754 0.217881 0.183952 0.334439 
3434 1 -0.0327246 -0.0114504 0.0808304 0.0879521 
2814 1 0.0323232 0.0922135 -0.0162322 0.0990535 
1723 1 0.0218029 -0.0482651 -0.14341 0.152877 
3264 1 0.12807 -0.0688813 0.139447 0.201475 
440 1 -0.0241644 -0.0412725 0.0782353 0.0916957 
3420 1 -0.0108873 -0.0661569 -0.028615 0.0728978 
771 1 -0.23983 0.230434 0.0433714 0.335409 
431 1 -0.106276 -0.0491833 0.0929119 0.149487 
968 1 -0.172757 -0.193484 0.108552 0.281185 
421 1 -0.211633 -0.00689407 0.0550411 0.218782 
801 1 -0.161897 -0.204183 0.144656 0.298038 
2656 1 -0.00916731 -0.0361682 0.0355899 0.0515638 
3339 1 -0.0318942 -0.217968 -0.102584 0.243004 
461 1 0.0224672 0.0819473 -0.157817 0.179238 
4152 2 0.0829073 0.0287826 -0.0791126 0.118156 
307 1 -0.197434 0.0536748 0.0114606 0.20492 
4298 2 -0.111036 0.246929 0.00239689 0.270756 
2884 1 -0.172955 -0.150225 0.0302978 0.231082 
3436 1 -0.112224 -0.00721943 0.11256 0.15911 
208 1 6.78187e-05 -0.231288 -0.0350093 0.233922 
486 1 0.000784136 0.00306561 0.0755649 0.0756312 
3371 1 -0.00583359 -0.0261224 -0.247404 0.248847 
840 1 -0.238934 0.0177143 -0.110254 0.263741 
4098 2 -0.083197 0.0054563 0.476256 0.483499 
3378 1 0.0648553 0.00496104 0.39991 0.405165 
4143 2 -0.0362615 0.000845543 -0.0611377 0.0710874 
3312 1 0.0954975 -0.0833303 -0.027794 0.129754 
491 1 -0.0776908 0.0464975 -0.0473074 0.102156 
308 1 0.0240278 -0.00401979 0.00804433 0.0256555 
3678 2 -0.209086 0.15052 0.126049 0.286813 
128 1 -0.107113 0.133719 0.080203 0.189173 
907 1 -0.0984127 0.0283526 0.108382 0.149116 
1641 1 -0.144215 0.0490936 -0.0425246 0.158166 
1544 1 -0.0719982 0.0650594 0.0781883 0.124619 
3503 2 -0.278251 0.265308 -0.0539431 0.388229 
4048 2 0.24757 -0.00906774 -0.0872175 0.262641 
865 1 0.0557045 -0.145007 0.0239647 0.157176 
1535 1 -0.0221837 0.0398827 -0.0640505 0.0786461 
573 1 -0.0583345 0.0297708 0.0433168 0.0785211 
3844 2 -0.0670924 0.0461368 -0.0213108 0.0841674 
631 1 0.0909725 0.134071 0.0495517 0.16943 
3600 2 0.127578 0.0680157 -0.00905614 0.14486 
606 1 -0.0217813 0.0584819 0.0748127 0.0974243 
166 1 0.0270721 0.0971407 0.179324 0.205734 
797 1 -0.0985045 0.0533517 0.20771 0.235993 
891 1 -0.256905 -0.0139897 0.0373968 0.259989 
1569 1 -0.151346 0.00945123 -0.191541 0.244301 
63 1 -0.042398 0.0298338 -0.0215554 0.0561452 
577 1 -0.0417106 -0.0821956 0.178195 0.200622 
565 1 0.0985996 0.0194506 0.079426 0.128096 
3616 2 0.00679443 0.0131576 0.00108041 0.0148477 
3418 1 0.00523977 0.0112628 -0.0261044 0.0289093 
4176 2 -0.00813177 0.051466 0.0879811 0.102252 
3481 2 0.396147 -0.329118 -0.357491 0.626938 
4319 2 0.037802 0.0312736 0.0567099 0.0749869 
655 1 -0.230508 -0.011473 -0.0250579 0.23215 
1053 1 0.0349213 -0.130448 -0.178602 0.223908 
621 1 0.157468 -0.0837218 0.0302792 0.180893 
3615 2 -0.115097 0.0685973 -0.12471 0.183045 
657 1 -0.262176 0.0737293 -0.0427191 0.275676 