ITEM: TIMESTEP
340
ITEM: NUMBER OF ATOMS
4320
ITEM: BOX BOUNDS pp pp pp
0.0000000000000000e+00 1.9309999999999999e+01
0.0000000000000000e+00 1.9309999999999999e+01
0.0000000000000000e+00 9.6549999999999994e+00
ITEM: ATOMS id type c_displacement[1] c_displacement[2] c_displacement[3] c_displacement[4] 
3196 1 0.0378628 0.110647 0.0951813 0.150784 
381 1 0.0277209 0.0579364 0.0224511 0.0680377 
327 1 0.0534235 -0.0724322 -0.100069 0.13459 
484 1 -0.0343285 0.0123537 -0.195831 0.199201 
728 1 0.0124855 0.0310475 -0.0893829 0.0954418 
817 1 -0.0744658 0.00237317 0.0721727 0.103729 
3006 1 0.187638 -0.000571832 0.0323433 0.190406 
3679 2 0.119986 -0.0804054 0.159239 0.214985 
594 1 0.143347 0.0761742 0.0983942 0.189822 
2945 1 -0.192825 0.0142827 0.0455208 0.198639 
3230 1 -0.161105 -0.0627311 0.0604234 0.183142 
3651 2 -0.179015 0.0257874 0.0342006 0.184068 
66 1 -0.0435459 0.0353402 -0.0992206 0.113973 
400 1 -0.116983 0.0500661 -0.0690862 0.144791 
677 1 -0.000318984 -0.000810568 0.0426082 0.0426171 
623 1 -0.105456 -0.0290229 0.107085 0.15307 
87 1 -0.106805 0.0716075 0.0145787 0.129412 
3199 1 0.121978 0.11257 -0.166615 0.235184 
727 1 0.0249755 -0.0763294 -0.085484 0.117292 
688 1 -0.0340389 0.00822071 0.143556 0.147765 
58 1 -0.0562979 -0.185896 0.169571 0.25784 
3514 2 -0.139702 -0.0187604 -0.0401612 0.146566 
18 1 -0.0637507 0.0630617 0.18367 0.20439 
3618 2 -0.250273 0.0489737 0.274626 0.374773 
190 1 -0.0154375 0.0649578 -0.182122 0.193975 
298 1 -0.0458123 -0.149458 0.0267479 0.158593 
389 1 0.210853 -0.260132 0.058288 0.33989 
110 1 0.00870449 -0.166609 0.0341988 0.170305 
180 1 0.00395398 -0.103354 0.193668 0.219557 
106 1 -0.169451 -0.0562381 -0.144835 0.229899 
217 1 0.0141507 -0.0157398 -0.0434121 0.0482969 
775 1 -0.00866235 -0.0285689 -0.0935114 0.0981611 
3627 2 -0.0168427 0.0621077 -0.056757 0.0858044 
608 1 0.0232855 -0.0979975 0.095123 0.138543 
553 1 -0.178178 0.0223314 0.0383794 0.183627 
3118 1 -0.00355077 0.0229221 -0.171654 0.173214 
562 1 0.078668 0.00970948 -0.0869296 0.117642 
70 1 0.100191 0.040762 -0.0106248 0.108686 
121 1 0.138081 0.0789048 -0.112993 0.19509 
1118 1 0.00121492 -0.10145 -0.0525324 0.114251 
210 1 0.162022 -0.11628 0.17423 0.264817 
232 1 -0.016203 0.0207799 0.0742813 0.0788166 
4214 2 0.0995044 0.1042 -0.00531586 0.144177 
4170 2 0.0256987 0.167474 0.0233746 0.171039 
65 1 0.0340391 0.039137 0.0477958 0.0705323 
226 1 0.117887 -0.0658788 0.162416 0.211226 
532 1 -0.00553111 0.0358476 0.257394 0.259937 
3578 2 -0.0426503 -0.0520838 -0.00303887 0.067387 
473 1 0.0527654 -0.11301 0.0495109 0.13419 
246 1 0.0058111 -0.0376634 0.0742243 0.0834359 
3712 2 0.0464096 0.00500416 -0.0335931 0.0575099 
155 1 -0.105875 0.0339899 -0.0207686 0.11312 
1160 1 -0.228288 0.0292742 0.285608 0.366803 
4071 2 0.00265984 0.215956 0.344897 0.406938 
2838 1 0.190202 0.188518 -0.123462 0.294887 
536 1 -0.0578704 0.144626 0.0558556 0.165486 
894 1 -0.106161 0.0829916 0.123018 0.182459 
289 1 -0.122496 -0.00765568 0.0784063 0.145642 
351 1 -0.128763 0.0624989 0.0749019 0.161543 
197 1 0.0818286 -0.102444 -0.0768739 0.151988 
3135 1 -0.0905099 0.137207 0.20608 0.263604 
303 1 -0.218893 0.0235621 0.0597938 0.228133 
1415 1 -0.0435806 0.061351 0.0571457 0.0944926 
527 1 -0.247052 -0.107662 0.116868 0.293741 
3002 1 -0.128983 0.0128905 0.082407 0.153603 
3189 1 -0.141335 -0.110149 -0.0128613 0.179649 
712 1 -0.152933 -0.0490247 0.00413891 0.160652 
718 1 -0.178583 0.0721979 -0.0730672 0.206018 
3469 2 -0.0971776 0.133822 -0.041666 0.170551 
4177 2 -0.00415806 -0.509271 0.135167 0.52692 
93 1 -0.165926 0.174566 0.173282 0.296701 
569 1 -0.0993818 0.0559841 -0.0528512 0.125715 
639 1 -0.217221 0.175829 0.109201 0.300043 
21 1 -0.12066 0.0165434 0.188387 0.224326 
96 1 -0.0248804 0.0391151 -0.0809506 0.0932846 
3353 1 -0.258624 -0.136689 -0.0917923 0.306588 
823 1 0.0568041 -0.110448 -0.0841258 0.150009 
2596 1 -0.0469037 -0.255236 0.0131083 0.259841 
50 1 0.0382125 -0.207461 0.109164 0.237523 
2495 1 0.14053 0.210319 0.170779 0.305202 
28 1 -0.0334664 0.122269 -0.0112702 0.127267 
3055 1 0.145487 -0.0441523 -0.046061 0.158863 
12 1 0.211942 0.138847 -0.166388 0.303122 
3346 1 0.146201 0.0690842 0.0900563 0.185088 
738 1 0.146241 -0.0603664 -0.0840637 0.179157 
2453 1 0.24428 -0.0374242 0.0243597 0.248327 
3167 1 0.117757 -0.106412 0.0852797 0.180175 
339 1 0.101459 0.110932 0.146866 0.210165 
988 1 0.030137 0.0613831 -0.0944896 0.116638 
3586 2 0.0762169 0.0325955 0.0488665 0.0962258 
1454 1 -0.0463646 0.0014157 -0.0392428 0.0607592 
390 1 0.197504 -0.0831598 0.10021 0.23657 
203 1 0.0107237 -0.0691575 0.00530025 0.0701844 
3582 2 -0.00459553 0.227755 -0.0559105 0.234563 
3632 2 0.0970274 0.131775 -0.0105017 0.16398 
231 1 0.083271 -0.0498656 0.137163 0.16803 
323 1 -0.00638001 0.0178505 -0.0400472 0.0443072 
3244 1 0.0309166 0.0411051 0.0241618 0.0568265 
118 1 0.0627592 -0.0397356 0.0508131 0.0899978 
2735 1 -0.153432 -0.0071619 -0.108415 0.188007 
2768 1 0.000375132 0.064981 0.0309944 0.0719953 
2960 1 -0.187525 -0.0580465 0.00139625 0.196309 
29 1 -0.0583114 0.126906 0.0748734 0.158466 
753 1 -0.0348259 -0.0798832 0.00978002 0.0876916 
3467 2 -0.12148 0.0733673 0.0486455 0.150022 
4289 2 0.0284479 0.0788049 0.106503 0.135508 
3251 1 -0.0808831 0.0376778 -0.020885 0.09164 
3478 2 0.181206 0.104494 -0.0322037 0.21164 
725 1 -0.225969 0.0928367 -0.0110985 0.244548 
1133 1 0.000329248 0.20832 -0.0673826 0.218947 
3611 2 0.158199 -0.101275 -0.0600144 0.197194 
4187 2 -0.197211 -0.0815792 -0.0838082 0.229284 
437 1 -0.0783351 0.0730323 -0.0173253 0.108491 
53 1 0.0669693 0.042352 0.0261605 0.0834443 
593 1 -0.0993979 0.00310105 -0.0177596 0.10102 
609 1 -0.0389237 -0.13714 -0.000447251 0.142558 
3040 1 -0.025098 0.0281862 0.0148364 0.0405524 
737 1 0.06448 0.0769639 -0.0347293 0.106241 
167 1 -0.150145 0.146324 0.184791 0.279467 
3460 2 0.0582625 -0.00334847 0.00948039 0.0591236 
610 1 -0.0788837 -0.0444968 0.14484 0.170825 
247 1 0.0394344 0.0551832 0.107193 0.126849 
89 1 -0.11979 -0.0913927 0.170627 0.227631 
3149 1 -0.0713783 0.0297813 0.189624 0.20479 
550 1 -0.123581 -0.112204 0.0990666 0.194103 
147 1 -0.0240281 0.154077 0.301998 0.339883 
3554 2 0.00714018 -0.053792 -0.0298593 0.0619366 
3786 2 -0.250265 0.221811 -0.0384385 0.336616 
5 1 -0.0434947 0.149296 0.113475 0.192504 
2591 1 0.147816 0.185187 0.0958965 0.255617 
3232 1 0.00814878 -0.03658 -0.0954411 0.102535 
1215 1 0.100281 -0.0428711 -0.00983511 0.109503 
859 1 0.0968076 0.103232 0.0659813 0.156147 
3152 1 -0.0938205 -0.0344607 0.105622 0.145416 
2936 1 -0.0909284 0.272626 -0.0139038 0.287726 
59 1 0.0773508 -0.0596721 0.0561772 0.112693 
2461 1 0.00705871 0.0526193 -0.0105077 0.0541205 
23 1 0.019592 -0.0652771 -0.135208 0.151414 
3743 2 0.120124 0.145382 -0.000628309 0.18859 
3023 1 -0.0146613 -0.0297247 -0.113926 0.118649 
151 1 0.0527133 -0.0733886 0.102819 0.136881 
43 1 0.118323 -0.0281764 0.047284 0.130499 
3730 2 0.037046 0.0727077 0.00118322 0.0816102 
424 1 0.183387 0.0349354 -0.0337883 0.189718 
3808 2 0.125557 -0.0161708 0.0932663 0.157241 
626 1 0.160513 0.0901353 0.0239475 0.18564 
233 1 -0.0571925 0.0273197 0.121059 0.136648 
546 1 -0.116977 0.00646875 -0.0119355 0.117762 
4034 2 0.0567208 0.0753846 -0.00828816 0.0947036 
559 1 0.0238972 0.0554448 -0.0626966 0.0870406 
2500 1 -0.0170915 0.0466135 -0.0687167 0.0847757 
3188 1 0.0483853 0.13603 0.132075 0.195676 
3491 2 -0.000414262 0.0272942 -0.126609 0.129519 
717 1 -0.107831 0.0188353 0.122847 0.164541 
2931 1 -0.113208 -0.0184939 0.0580497 0.128561 
691 1 -0.187432 0.0349182 0.0569802 0.19899 
2494 1 0.00404581 0.0591542 0.0139173 0.0609038 
174 1 -0.0217354 -0.165411 -0.0109503 0.167192 
4228 2 -0.0675407 0.0275004 -0.0754213 0.104911 
3634 2 0.029694 0.165848 0.0577071 0.178094 
2994 1 0.055146 -0.0256111 0.00716415 0.0612236 
529 1 -0.00245697 -0.0670914 0.0811628 0.105331 
1480 1 -0.0313204 -0.105743 0.143817 0.181234 
2968 1 -0.0107446 0.0106812 -0.0188444 0.0241795 
3464 2 -0.048029 -0.0873526 0.0931708 0.136448 
98 1 -0.0124712 -0.141558 0.0228433 0.143931 
216 1 0.0429423 0.0411273 -0.0496146 0.077441 
40 1 0.0646767 -0.163987 0.0249236 0.178034 
1130 1 0.0589028 -0.125618 0.0573184 0.150116 
3916 2 -0.0349582 0.0103059 0.0853308 0.0927881 
3041 1 -0.0861676 -0.101142 0.118833 0.178258 
604 1 0.0553157 0.0130273 0.0549357 0.0790409 
721 1 -0.00586056 -0.0278381 0.119771 0.123103 
3164 1 -0.000541734 0.149758 0.115796 0.189305 
187 1 0.0434775 -0.0980747 0.0840223 0.136267 
3010 1 0.0190013 -0.0579692 0.206992 0.215794 
64 1 -0.057628 -0.00407343 -0.056998 0.0811563 
193 1 -0.0214888 0.0924465 -0.123602 0.155838 
44 1 0.148265 0.0214243 -0.0815312 0.170554 
2996 1 0.0378717 0.118759 -0.256528 0.285209 
4212 2 -0.0668563 0.322563 -0.0600344 0.334844 
3279 1 -0.0463819 0.119801 0.0722562 0.147392 
257 1 -0.0513448 0.101954 -0.0657446 0.131732 
178 1 0.0284224 0.114343 -0.134518 0.178822 
330 1 0.0791135 0.211162 -0.00552519 0.225563 
103 1 -0.00880087 0.103226 -0.0129731 0.104409 
3841 2 0.0639044 -0.237991 -0.0065234 0.246508 
600 1 -0.0815215 0.140522 -0.0451612 0.168617 
338 1 -0.073595 0.0760519 0.0338947 0.111126 
4101 2 -0.0640095 0.115566 0.137322 0.190552 
949 1 0.021923 0.187697 0.0147144 0.189545 
3608 2 0.0839201 0.0850836 0.0706976 0.138852 
2995 1 -0.0857828 -0.120538 -0.0842818 0.170269 
4217 2 -0.159553 0.0483059 0.209082 0.267405 
479 1 0.120278 0.138601 -0.00901181 0.183735 
3335 1 0.112641 0.167684 -0.0868441 0.219881 
1457 1 -0.0693944 0.0596585 0.0105612 0.0921209 
3037 1 -0.0611322 0.0916517 -0.0857606 0.139614 
4253 2 0.0468478 -0.0522547 0.0630858 0.0943668 
387 1 -0.0118469 -0.0471326 -0.0595957 0.0768991 
3736 2 -0.035874 0.120307 0.0267591 0.128362 
3394 1 -0.0770264 -0.140927 -0.0793659 0.179143 
508 1 -0.0423509 0.0498507 -0.0143879 0.0669754 
3537 2 0.00770001 -0.0625926 -0.129561 0.144094 
747 1 -0.11289 0.0976338 -0.0387095 0.154191 
497 1 0.0578454 -0.0148162 0.076383 0.0969534 
958 1 -0.145626 -0.19207 0.0634306 0.249241 
3130 1 -0.100772 -0.0465523 -0.0197724 0.112752 
4163 2 -0.0518328 -0.10638 0.107322 0.159754 
3643 2 0.0356614 0.131245 0.022015 0.137774 
133 1 0.043731 0.0445712 0.166708 0.178019 
4204 2 -0.152937 0.00772384 0.00907877 0.1534 
86 1 0.188216 0.0254395 -0.0563262 0.198104 
759 1 0.108854 -0.0656424 0.194317 0.232201 
3411 1 -0.0678704 -0.059957 0.0574945 0.10727 
835 1 0.0135384 -0.240919 0.269918 0.362051 
3057 1 -0.0419729 0.0960073 0.0794803 0.131515 
3620 2 0.0710961 -0.0911274 0.125062 0.170292 
241 1 -0.0114123 0.159317 -0.0326791 0.163034 
704 1 0.173639 -0.0696544 -0.0866785 0.206193 
3599 2 -0.0786901 0.250611 -0.0476636 0.266964 
157 1 0.0979451 0.0965666 -0.112853 0.177916 
54 1 0.1589 -0.195131 0.153191 0.294606 
493 1 0.141482 0.157608 0.0158188 0.212386 
204 1 0.0138445 0.0905011 -0.0292999 0.096128 
254 1 0.0104635 0.233632 -0.0889167 0.250199 
67 1 0.136859 -0.0524757 0.0310985 0.149838 
2988 1 -0.126677 0.267001 -0.137582 0.325984 
3030 1 -0.267067 0.247296 -0.26804 0.452024 
4050 2 0.000428726 0.186269 -0.207879 0.279124 
3479 2 0.0269629 0.192508 0.0388614 0.198234 
674 1 0.0287942 0.0670432 -0.077871 0.106714 
2004 1 -0.193295 -0.069905 -0.108457 0.232406 
2934 1 0.0391167 0.0898312 -0.149633 0.178857 
3216 1 -0.0810057 0.092598 -0.113195 0.167181 
234 1 0.014005 0.113571 -0.0231077 0.116741 
1036 1 0.0542779 0.128281 -0.0643309 0.153429 
3369 1 -0.050589 0.121577 0.124081 0.180932 
3607 2 0.0593021 0.175175 -0.266543 0.32442 
3139 1 -0.00659038 0.0361781 0.0764033 0.0847924 
644 1 -0.275547 -0.0103887 0.0516052 0.28053 
1278 1 -0.148021 -0.126238 -0.0715702 0.207288 
4269 2 -0.0673144 0.119622 0.0820882 0.159935 
3007 1 -0.113347 -0.0940466 0.152646 0.212116 
215 1 -0.0452426 0.0296762 -0.0172264 0.056783 
4089 2 0.128282 0.213327 0.0811378 0.261817 
214 1 -0.00536499 0.100244 0.0743373 0.124915 
640 1 -0.0955007 0.149873 0.171197 0.246761 
199 1 0.091068 -0.0519466 0.0492516 0.115834 
245 1 -0.107564 -0.0200953 0.126572 0.167315 
2758 1 -0.103128 0.220281 0.0919002 0.260009 
3056 1 -0.0668014 0.0189831 0.100342 0.12203 
3468 2 -0.103442 0.0450592 0.121908 0.166109 
563 1 -0.121345 -0.112372 0.0138724 0.165966 
2977 1 0.0874843 0.0653201 -0.0221139 0.111397 
1149 1 0.0522474 -0.0725077 0.108857 0.140844 
2684 1 -0.138488 0.00720905 0.0505059 0.147586 
249 1 0.00637508 -0.0716511 0.0466871 0.0857567 
3096 1 0.0091917 -0.0175019 0.115278 0.116961 
240 1 -0.0135449 -0.0913052 0.116153 0.148363 
181 1 -0.0645761 -0.11835 0.195918 0.237825 
46 1 -0.0113069 -0.0733447 0.12775 0.147741 
3211 1 0.0396691 -0.107698 -0.0106917 0.115269 
1102 1 -0.0513838 0.132911 -0.0475252 0.150214 
95 1 -0.0481511 -0.103997 0.0683529 0.133439 
2939 1 -0.0573875 0.0514866 0.009125 0.0776367 
3512 2 -0.0406376 0.0628493 -0.0385488 0.084187 
3603 2 -0.117727 -0.183021 0.0253827 0.21909 
3701 2 0.0596563 0.0771653 0.0394167 0.1052 
3513 2 -0.105297 -0.0440574 -0.0160529 0.115266 
312 1 -0.0552746 -0.118514 0.0843696 0.155625 
587 1 0.0658094 0.12655 0.0046396 0.142714 
134 1 0.0550992 0.037336 0.0321961 0.0739357 
135 1 -0.0115836 -0.063611 -0.186925 0.197792 
3003 1 -0.0979198 0.0929786 0.092192 0.163501 
191 1 -0.0394087 -0.0440603 -0.0246523 0.0640476 
685 1 0.031413 -0.117111 -0.0676004 0.138822 
602 1 -0.0486031 -0.0670792 0.274425 0.286655 
195 1 -0.107748 0.104397 0.0908778 0.175406 
3092 1 0.0517596 0.080128 0.0229933 0.0981236 
4195 2 -0.138567 -0.0842927 -0.18503 0.246053 
80 1 -0.144332 -0.0601069 0.1291 0.202759 
540 1 -0.0515501 -0.0767101 0.178701 0.201186 
920 1 -0.0628038 0.0340714 -0.16169 0.176773 
427 1 -0.13933 -0.0296854 -0.210112 0.253852 
4173 2 0.0789404 0.0305434 -0.0502706 0.098446 
2950 1 -0.220672 0.000461541 -0.152485 0.268231 
6 1 0.154984 -0.242554 -0.253307 0.383427 
182 1 0.188599 -0.100424 -0.129971 0.250095 
690 1 -0.0740336 -0.0155154 -0.198372 0.212304 
3408 1 -0.227432 0.0422194 0.159777 0.281134 
902 1 -0.118389 0.0945072 -0.0533433 0.160602 
154 1 -0.0660124 0.0491804 -0.0164143 0.0839391 
710 1 -0.235173 -0.105848 -0.152169 0.299442 
3115 1 -0.0499002 0.00157396 0.0516224 0.0718149 
742 1 -0.226028 -0.0686665 -0.168845 0.290366 
2926 1 -0.190359 -0.0796328 0.0534022 0.213142 
446 1 0.0143166 0.0702886 0.272446 0.281731 
580 1 -0.0380853 0.111933 0.139421 0.182805 
3518 2 -0.148537 0.13753 -0.111679 0.231193 
354 1 0.121845 0.0981752 0.0239326 0.158295 
1179 1 -0.0921312 0.128991 0.0246588 0.160421 
3493 2 0.120305 0.126004 0.180999 0.251218 
1331 1 -0.107453 0.108955 -0.0349878 0.156976 
140 1 0.0593245 0.0231422 0.127352 0.142385 
4094 2 0.210964 -0.0122268 0.244062 0.322833 
78 1 0.0185143 0.133645 -0.0130227 0.135548 
205 1 -0.061632 0.213153 0.158555 0.272713 
694 1 -0.118522 0.0522989 0.0760634 0.150227 
861 1 0.142427 0.147829 -0.107135 0.231553 
3549 2 -0.0484476 0.0726109 -0.0238667 0.0904938 
4014 2 0.015017 -0.129566 0.121739 0.178419 
3401 1 0.016232 0.0724752 0.0539908 0.0918212 
334 1 -0.0924522 -0.0914698 0.00464517 0.130137 
614 1 0.100366 -0.023195 0.0638602 0.1212 
3341 1 -0.191627 0.141502 0.0258982 0.239614 
512 1 -0.0767226 0.0109086 0.0604114 0.0982593 
300 1 -0.0207918 0.0406026 0.119474 0.127886 
393 1 -0.0378584 0.00681595 -0.0737311 0.0831624 
2740 1 -0.0117465 0.127477 0.0825116 0.152304 
3197 1 -0.0967585 0.0739065 0.0273788 0.124796 
4006 2 0.0500007 0.295756 0.0742891 0.309015 
286 1 -0.096977 0.0264615 0.0778939 0.12717 
886 1 -0.0239178 0.0570063 -0.061035 0.0868738 
277 1 -0.13515 -0.0750355 0.0484759 0.162006 
364 1 -0.0946135 0.038579 -0.109697 0.149912 
1367 1 0.117029 -0.081714 0.0327151 0.146435 
411 1 -0.00949781 0.0848446 -0.0200373 0.0876944 
3631 2 0.0536438 0.105673 0.040921 0.125375 
356 1 -0.019804 -0.055346 0.0059771 0.0590856 
3664 2 0.0855596 0.0219378 0.16442 0.186643 
357 1 -0.187361 -0.00652814 -0.262853 0.32286 
265 1 -0.0592869 0.0249737 -0.0609764 0.0886382 
3389 1 0.0370728 -0.023727 -0.108686 0.11726 
362 1 0.0169047 0.0191674 -0.219199 0.220684 
478 1 -0.0532995 0.223867 -0.221965 0.319728 
4159 2 -0.0863438 -7.29558e-05 -0.166951 0.187957 
2696 1 -0.166447 0.0565929 -0.0428192 0.180945 
966 1 0.0687058 0.114715 -0.0714746 0.15162 
3612 2 0.0317389 0.0667301 -0.137221 0.155852 
3392 1 -0.185154 0.0747852 0.0913959 0.219609 
780 1 -0.0472434 -0.122758 -0.172939 0.217277 
924 1 0.101449 0.0675878 0.117654 0.169418 
2710 1 0.00736622 -0.0528543 -0.11828 0.129761 
3313 1 0.0623667 -0.00476439 0.0691073 0.0932101 
3482 2 -0.0956716 -0.150181 -0.0366754 0.181803 
771 1 0.0804277 -0.0135996 -0.00583864 0.081778 
3333 1 0.0634052 -0.0273913 0.0361592 0.0779615 
3303 1 0.085024 -0.12396 0.222406 0.268439 
3526 2 -0.144289 0.0515483 0.104072 0.185222 
3249 1 0.0023008 0.0223138 0.0433427 0.0488035 
92 1 -0.212423 -0.0941938 0.186353 0.297864 
3379 1 -0.0335865 0.0138945 0.0420586 0.055588 
1449 1 -0.0131579 0.0799497 0.00946672 0.0815764 
903 1 0.0250838 0.111052 0.0868912 0.14322 
1077 1 0.0880028 0.148886 0.0883751 0.194221 
462 1 -0.124756 -0.147241 0.166595 0.254947 
2966 1 0.153648 0.199298 -0.211099 0.328466 
3022 1 -0.0222597 -0.0693288 -0.116048 0.137 
750 1 0.0989095 0.0983156 -0.0409268 0.145341 
3162 1 0.0226516 0.0555051 -0.0290595 0.0666211 
449 1 -0.0881186 -0.0753437 -0.0688309 0.13483 
3658 2 -0.0157681 0.147225 0.16393 0.2209 
287 1 -0.175544 0.0461066 0.0140222 0.182039 
3647 2 -0.270362 0.185865 -0.11212 0.346716 
2890 1 -0.246023 0.131518 -0.130912 0.30816 
1285 1 -0.203579 0.276443 -0.0772122 0.351891 
943 1 -0.193227 0.0250686 -0.00116329 0.19485 
3305 1 0.0220596 0.208404 0.0919648 0.228859 
3209 1 -0.0740921 -0.0763471 0.0188031 0.108037 
4154 2 -0.0247188 0.0478561 -0.0165722 0.0563548 
3257 1 0.165894 -0.224647 -0.0817831 0.290991 
4318 2 -0.342764 0.0780512 0.0530035 0.355512 
3883 2 0.0388151 0.117427 0.0881839 0.151895 
3531 2 -0.00875037 0.0126352 0.0784607 0.0799519 
3227 1 0.0149934 0.00913953 0.175941 0.176815 
373 1 0.206621 0.0614538 -0.00525491 0.21563 
4297 2 0.0667711 0.0206546 0.031976 0.07686 
3404 1 0.201684 -0.0826464 -0.0656076 0.22762 
398 1 0.0332342 -0.00643122 -0.0441896 0.055665 
2732 1 0.0172393 -0.0527067 -0.0229925 0.060032 
3221 1 0.0971472 -0.0357434 -0.0949204 0.140446 
836 1 -0.0148569 -0.120748 -0.0862455 0.149128 
309 1 0.0232402 0.0659887 -0.156651 0.171564 
394 1 0.146392 -0.0318404 -0.0593716 0.161151 
412 1 0.0123701 0.0556761 -0.153255 0.163524 
1212 1 0.0283325 0.0546143 -0.0932958 0.111757 
3573 2 -0.0572668 -0.0030156 -0.0420827 0.0711304 
3360 1 -0.10198 0.0761991 -0.139639 0.188958 
3319 1 -0.0280999 0.030546 0.0773972 0.0878236 
3588 2 0.087704 0.0189297 0.0667931 0.111855 
2365 1 -0.0094976 0.0460672 -0.142705 0.150257 
306 1 -0.0613704 0.040211 -0.103882 0.12718 
3093 1 -0.14081 0.0479384 -0.0691205 0.164022 
2745 1 -0.062696 -0.0195171 -0.16889 0.181206 
355 1 -0.0675911 0.0285166 0.0358731 0.0816617 
3097 1 0.119466 0.0976656 -0.0138414 0.154927 
468 1 0.182419 0.272541 0.159168 0.36454 
228 1 -0.00546278 -0.0558185 -0.0452217 0.0720455 
3324 1 0.0918723 0.0926276 -0.0354313 0.135188 
951 1 -0.0295913 0.195177 0.138102 0.240919 
2737 1 -0.109021 0.0965947 -0.0309372 0.148907 
2959 1 -0.159048 0.173057 -0.161256 0.285041 
4284 2 0.0371894 -0.0545401 0.18768 0.19895 
4225 2 0.286768 0.0738098 -0.0113967 0.296334 
3192 1 0.121029 -0.0335699 0.0633298 0.140661 
4116 2 -0.0278277 0.122856 -0.00147347 0.125977 
716 1 0.248184 0.135761 0.0851786 0.295435 
353 1 0.0391574 -0.140427 -0.0366551 0.150322 
601 1 0.146031 0.0297763 -0.0135069 0.149647 
3094 1 0.0403167 -0.0713077 -0.0667327 0.105657 
3617 2 0.199728 0.0105699 -0.0400741 0.203982 
206 1 -0.103121 0.0440494 -0.164882 0.1994 
71 1 0.0773973 -0.0532635 -0.0972084 0.135192 
3676 2 -0.0634434 0.168727 -0.0241853 0.181876 
4123 2 -0.273608 0.0973228 0.0153532 0.290807 
4185 2 0.0689119 -0.0765303 -0.064947 0.121753 
3483 2 -0.18855 0.186567 0.00288178 0.265267 
763 1 -0.00438837 0.124363 0.0559467 0.136439 
3561 2 0.0148686 -0.109756 -0.0422592 0.118547 
3290 1 0.00187183 0.153013 -0.0232935 0.154787 
388 1 -0.0627235 0.130878 0.061338 0.157562 
1313 1 -0.0240338 0.091574 -0.250139 0.267456 
444 1 -0.0320304 0.12675 -0.0397047 0.136631 
3668 2 0.0657639 0.152123 0.0347525 0.169334 
838 1 -0.033158 -0.0266939 0.00243309 0.0426372 
460 1 0.0747942 -0.101414 -0.109941 0.167231 
499 1 0.0353713 -0.0291079 -0.0362236 0.0583999 
3548 2 -0.605688 -0.395339 -0.109973 0.731605 
291 1 0.0765858 0.0551745 -0.0343389 0.100443 
482 1 0.107077 0.0459947 0.0220257 0.118601 
1314 1 -0.0514503 0.0197717 0.0354125 0.0655141 
3672 2 0.0571388 0.0618417 0.0138588 0.0853305 
375 1 0.0572609 -0.0625849 -0.0904153 0.123978 
94 1 0.0936728 -0.133512 -0.0416291 0.168324 
3281 1 -0.0935688 0.0592202 -0.0255024 0.113633 
37 1 -0.0244201 0.0191259 0.00993417 0.0325704 
3321 1 -0.00153418 -0.0798079 0.0316832 0.0858806 
2961 1 0.125224 0.0809285 -0.036264 0.153446 
3393 1 -0.06091 -0.0284756 0.0716395 0.0982502 
901 1 -0.149489 -0.127366 -0.150755 0.24758 
4309 2 0.0157219 -0.0631274 -0.136344 0.151069 
392 1 -0.106989 -0.0638767 0.0251088 0.127111 
436 1 0.111356 -0.0856174 -0.0191428 0.141763 
792 1 -0.00887829 -0.111314 -0.128786 0.170457 
3293 1 0.0214098 -0.0626758 -0.0227806 0.0700399 
3320 1 -0.144535 -0.146471 -0.0470293 0.211082 
3095 1 -0.104433 -0.0196092 -0.0314672 0.11082 
318 1 -0.19383 -0.155233 -0.0641355 0.256477 
3350 1 -0.187613 -0.141817 0.0910239 0.252182 
3314 1 -0.00200193 -0.0719405 -0.320626 0.328603 
2861 1 -0.0579931 -0.0602414 -0.0060421 0.0838375 
3180 1 -0.0598574 0.150572 -0.0838572 0.182447 
3150 1 -0.105475 -0.0814618 0.0478289 0.141593 
2479 1 0.0332904 0.141912 -0.0122127 0.146275 
160 1 0.0772831 0.00339653 0.0427552 0.0883868 
3535 2 -0.00740741 0.136642 -0.127258 0.186871 
221 1 -0.0724368 0.0962675 0.0842873 0.147034 
4264 2 0.124863 -0.0734521 0.0121936 0.145377 
100 1 0.0627524 -0.0299451 0.147408 0.162984 
1304 1 0.303757 -0.0579931 -0.0103575 0.309417 
433 1 -0.126402 0.0186147 -0.0659468 0.143781 
1354 1 0.0398695 0.0234463 -0.0508903 0.0687687 
4257 2 0.234893 0.19996 -0.155793 0.345587 
3301 1 -0.0400294 0.0449159 -0.102436 0.118798 
4271 2 0.127414 0.0855208 0.0306935 0.156493 
1172 1 0.103534 -0.0201531 -0.0137015 0.106364 
652 1 0.0298644 0.00843753 -0.180598 0.183245 
3568 2 0.0415636 0.0307919 -0.0562715 0.076434 
3433 1 0.0794468 -0.0261996 -0.0807596 0.116277 
3419 1 -0.00419349 -0.0304886 0.0113684 0.0328082 
248 1 0.0168076 -0.04042 0.0617452 0.0756884 
3560 2 0.172184 -0.093805 -0.0778359 0.210962 
419 1 0.319672 -0.123116 0.342864 0.484668 
3380 1 -0.10381 -0.0814238 0.176486 0.220349 
917 1 0.0918785 -0.140107 -0.0518127 0.175374 
2969 1 0.161898 -0.00931833 0.232141 0.283173 
325 1 0.085737 0.000106438 0.0359133 0.0929549 
292 1 0.167991 -0.0702778 -0.025458 0.18387 
3444 1 0.102357 -0.0896913 -0.0626841 0.149836 
908 1 0.189814 -0.18462 -0.0553859 0.27052 
3504 2 0.304899 -0.178329 -0.0378619 0.355244 
423 1 0.180863 -0.043586 -0.0124909 0.186459 
502 1 -0.0350392 -0.147085 0.246108 0.288844 
3435 1 -0.0171482 -0.0848922 0.180208 0.199939 
430 1 -0.0388097 -0.145495 -0.026961 0.152977 
439 1 0.0919607 -0.0718676 0.0858252 0.144871 
3331 1 0.213186 -0.069253 0.00837 0.224308 
4182 2 0.19433 -0.013054 0.109754 0.223563 
874 1 0.227205 -0.245897 0.125698 0.357613 
980 1 0.0649423 -0.140808 0.0366942 0.159345 
810 1 -0.00655196 -0.17021 0.122012 0.209527 
3312 1 0.105125 -0.15519 -0.0200684 0.188515 
4098 2 -0.061578 0.00927031 0.0860127 0.106188 
225 1 -0.0122245 -0.0196868 0.00659381 0.0240933 
4280 2 0.0220256 -0.134751 -0.014687 0.137327 
416 1 0.0804318 -0.0686492 0.127961 0.166 
365 1 0.0131759 -0.0478875 -0.059895 0.0778089 
3799 2 0.0834667 -0.171455 -0.189126 0.268574 
2819 1 0.0486918 -0.0949873 0.124777 0.164204 
382 1 0.136235 0.0713927 -0.0866235 0.176523 
404 1 0.0102129 -0.0485073 -0.145041 0.153278 
2776 1 0.132419 0.0470002 0.03319 0.144379 
2973 1 -0.0229776 -0.109398 -0.00164852 0.111797 
957 1 0.0622294 -0.166112 -0.0233508 0.178916 
795 1 0.152075 -0.180011 0.100577 0.256216 
490 1 0.0666798 -0.149061 -0.021713 0.164732 
3266 1 0.0525499 0.0108196 0.0428949 0.0686915 
4285 2 0.063485 0.0366301 -0.00367746 0.0733869 
496 1 -0.139312 0.0235412 0.105456 0.176304 
2993 1 0.0333602 0.106027 -0.0442919 0.119651 
4256 2 -0.080885 -0.0173878 0.0643622 0.10482 
471 1 -0.11272 0.0431795 0.106107 0.160713 
517 1 0.0647529 0.0395973 0.0397966 0.0857009 
279 1 -0.11812 0.394926 0.10407 0.425147 
349 1 -0.0259901 -0.00908007 -0.0941206 0.0980644 
825 1 -0.0140041 -0.177677 0.0422232 0.183161 
4028 2 -0.146043 0.0397528 0.0552711 0.161133 
208 1 0.0354765 0.00757728 -0.0301861 0.0471932 
3322 1 0.0719901 0.173879 -0.0397162 0.192338 
3863 2 -0.14939 -0.103293 0.0942265 0.20461 
274 1 -0.0604715 -0.0632925 -0.0706273 0.112476 
1091 1 0.0199448 -0.0846152 0.261628 0.275693 
3396 1 0.0341858 0.0210481 0.0626489 0.0744082 
819 1 0.0249658 0.00885839 -0.00952566 0.0281514 
329 1 -0.201553 0.104445 -0.148024 0.271005 
2545 1 -0.0205756 0.207181 0.10973 0.235347 
3327 1 -0.0661564 0.0577283 -0.102645 0.135075 
3674 2 -0.0141175 0.181217 0.21386 0.280669 
1418 1 0.0427032 -0.18468 -0.0834132 0.207094 
443 1 0.118651 -0.0854891 -0.000917989 0.146244 
855 1 -0.0651391 -0.0215914 -0.183561 0.195969 
4298 2 -0.0684256 -0.155938 0.0839702 0.189867 
3476 2 0.100002 -0.119165 0.132851 0.204573 
2869 1 0.117896 -0.0546138 0.0481467 0.138565 
4307 2 -0.0441379 -0.169747 0.0436978 0.180753 
177 1 0.0892073 0.000773734 -0.0591431 0.107035 
363 1 -0.107777 -0.20957 -0.0696572 0.245739 
1450 1 -0.139176 0.0291328 0.0973228 0.172309 
3559 2 0.000324376 -0.0696446 -0.081351 0.107091 
347 1 0.11678 -0.0341157 0.0337859 0.126266 
4237 2 0.0610659 -0.0880256 -0.0622135 0.123887 
319 1 -0.0757762 -0.0278719 0.0229525 0.0839387 
830 1 -0.0289719 -0.133248 -0.0319755 0.14006 
295 1 -0.0108574 -0.11558 -0.126845 0.171949 
937 1 -0.0172414 0.026648 -0.0443288 0.05452 
268 1 0.0806409 -0.0466149 0.0895934 0.12924 
854 1 0.0698046 -0.0128481 0.00310242 0.0710449 
442 1 -0.0440777 -0.118565 -0.129122 0.180757 
875 1 0.048983 -0.0671105 0.0391692 0.0918552 
501 1 0.119274 -0.0709089 0.272906 0.306157 
3378 1 0.121485 0.256879 0.145169 0.319092 
3291 1 0.216851 -0.121582 0.0642624 0.256781 
314 1 -0.0267088 -0.0950307 0.00822592 0.0990549 
474 1 -0.198794 0.00200988 -0.396956 0.443956 
3070 1 0.0250917 0.0181529 -0.0287478 0.0422558 
964 1 -0.134844 -0.0166219 -0.123838 0.183835 
793 1 0.0528817 -0.0338599 0.0774278 0.0996897 
3397 1 -0.167154 -0.100748 -0.0312967 0.197661 
899 1 0.0272921 -0.119137 -0.0680211 0.139877 
1337 1 -0.0294064 -0.00715593 -0.0102768 0.0319618 
3278 1 -0.0364061 0.00317132 -0.126847 0.132006 
3544 2 -0.00725399 -0.0967666 -0.0401025 0.104998 
1430 1 -0.137535 -0.00250657 0.0853383 0.161879 
3200 1 -0.0440177 0.0654148 0.100658 0.127862 
757 1 -0.115441 0.00776504 -0.025242 0.118423 
822 1 -0.129315 -0.0948506 0.217553 0.270275 
85 1 0.133965 -0.10521 0.276536 0.324789 
699 1 -0.0251164 0.0268318 -0.0402761 0.0545247 
3383 1 0.0640458 0.129623 -0.0117057 0.145055 
3240 1 -0.284238 -0.347216 0.0287049 0.449638 
113 1 0.21476 0.101751 0.0518699 0.24324 
504 1 -0.0413517 0.17345 0.300762 0.349647 
2795 1 -0.0343117 0.00299865 0.159434 0.163112 
781 1 0.0481276 -0.188576 0.0684571 0.206309 
581 1 0.0680451 -0.198856 0.24337 0.321563 
3541 2 0.0771879 0.072206 -0.0555927 0.119425 
786 1 0.116199 -0.143102 -0.102898 0.211113 
800 1 0.098761 -0.191485 -0.0976506 0.23655 
367 1 0.369832 -0.213707 0.265526 0.502942 
2687 1 0.0432904 -0.214667 0.0239427 0.220294 
3545 2 0.122279 -0.106206 -0.120751 0.202022 
491 1 0.0136975 -0.00381455 -0.0857671 0.0869378 
840 1 -0.0306383 -0.080378 -0.177779 0.197496 
3434 1 0.0583547 -0.19036 -0.0240672 0.200552 
2814 1 -0.0219799 -0.0495042 -0.0276976 0.0608353 
1723 1 0.0679002 -0.070117 -0.185736 0.209821 
3264 1 0.124204 -0.149922 -0.0321584 0.197326 
440 1 0.0670913 -0.074237 -0.033002 0.105364 
431 1 -0.0642133 -0.0975192 -0.0336709 0.12152 
402 1 -0.0566036 -0.125905 0.281936 0.313917 
968 1 -0.081772 -0.00455177 0.0890406 0.120978 
801 1 -0.123604 -0.234092 0.0800357 0.276555 
2656 1 0.0243442 -0.0646743 -0.0177147 0.0713387 
421 1 -0.0929709 -0.023027 -0.190047 0.212818 
4152 2 0.22113 0.155797 -0.00993686 0.270684 
461 1 -0.161303 0.264093 0.0362152 0.31157 
647 1 -0.0110466 0.0555288 0.24099 0.247551 
3436 1 -0.0741399 0.103792 0.0344457 0.132121 
3371 1 -0.0372119 0.103521 -0.0744468 0.132829 
486 1 -0.0598684 0.339491 0.23005 0.414441 
308 1 0.0883757 0.00674386 -0.0691878 0.11244 
307 1 -0.0118467 0.00244646 0.0536295 0.0549769 
3339 1 -0.139736 0.116441 0.00950668 0.182141 
4143 2 -0.187672 -0.0910953 0.224773 0.306662 
2873 1 -0.233649 -0.00585646 0.161657 0.284181 
2884 1 -0.0536478 -0.0231264 0.0789597 0.098222 
876 1 0.0407629 -0.0287417 0.0473282 0.068758 
1289 1 -0.000198194 -0.0112336 -0.00816417 0.0138884 
3678 2 -0.0421148 0.0337434 0.145965 0.155621 
3234 1 -0.108436 0.0741274 -0.0444335 0.138664 
483 1 -0.0100196 -0.109762 0.0678004 0.129402 
128 1 -0.03669 0.29676 0.050472 0.303249 
907 1 -0.069852 0.0635539 0.0152401 0.0956591 
1641 1 -0.0659505 0.193176 -0.135605 0.245062 
885 1 0.0430852 -0.0910192 -0.414309 0.426372 
1300 1 -0.0103725 0.0105847 -0.135077 0.135888 
1934 1 0.0100403 0.0727533 0.0665149 0.0990863 
891 1 -0.139286 0.0802206 -0.0896408 0.184042 
3778 2 -0.072807 0.12255 0.117859 0.18496 
1269 1 -0.0584381 -0.117773 -0.0981933 0.164095 
1535 1 0.103486 0.0493547 -0.0171613 0.11593 
573 1 -0.020492 0.0763049 0.139038 0.159918 
3844 2 -0.0114089 -0.0600092 -0.140527 0.153229 
631 1 0.107007 0.0857937 0.0260726 0.139609 
606 1 -0.0378122 0.111504 0.271328 0.295773 
3600 2 0.172644 0.146935 -0.126165 0.259448 
627 1 -0.180686 0.00495396 -0.0226592 0.182169 
1474 1 -0.0338232 0.0879678 0.148751 0.176095 
1569 1 -0.0246693 -0.162297 -0.0178649 0.16513 
63 1 -0.0680928 -0.0502052 -0.0202234 0.0869838 
577 1 -0.0149061 0.0918846 0.127724 0.158046 
565 1 -0.00771047 -0.0534642 0.0982229 0.112096 