ITEM: TIMESTEP
60
ITEM: NUMBER OF ATOMS
4320
ITEM: BOX BOUNDS pp pp pp
0.0000000000000000e+00 1.9309999999999999e+01
0.0000000000000000e+00 1.9309999999999999e+01
0.0000000000000000e+00 9.6549999999999994e+00
ITEM: ATOMS id type c_displacement[1] c_displacement[2] c_displacement[3] c_displacement[4] 
3196 1 0.0300624 -0.0590858 0.0658994 0.0934752 
381 1 0.0751301 0.0790163 -0.062266 0.125559 
327 1 -0.0406604 -0.00578752 -0.0782566 0.088379 
484 1 -0.017572 0.0609238 0.0296713 0.0700062 
728 1 -0.033232 0.162471 -0.161705 0.231624 
817 1 0.167425 0.00567529 0.0664863 0.180233 
3586 2 0.0697755 -0.0458512 0.0902575 0.122953 
3460 2 0.062007 0.107515 -0.0450754 0.132046 
3679 2 -0.00623925 -0.00259574 0.149637 0.14979 
2945 1 -0.0896236 -0.0151509 -0.139961 0.166886 
3230 1 0.0613337 0.0737118 -0.0726291 0.120292 
3651 2 0.0723562 0.00591293 0.0213771 0.0756794 
66 1 0.080133 0.0679494 -0.0137555 0.10596 
400 1 -0.0998102 0.0262342 -0.104341 0.146756 
677 1 0.0487466 0.0399962 0.0903856 0.110207 
623 1 0.0490671 0.0526216 0.063566 0.0960066 
87 1 0.0711217 -0.041036 -0.00382986 0.0822005 
3006 1 0.0445205 -0.0945952 0.124524 0.162594 
3877 2 0.0798972 0.0612618 -0.112062 0.150647 
727 1 0.0883001 -0.00773924 -0.021124 0.091121 
688 1 0.0463645 0.012314 -0.0227895 0.0531099 
58 1 0.0869735 -0.0396971 -0.0343277 0.101581 
3514 2 -0.0521108 -0.00177515 -0.0751831 0.0914942 
18 1 0.0772165 -0.000309008 -0.0347125 0.0846608 
3618 2 0.0013206 0.0311996 0.119187 0.12321 
190 1 0.051376 0.109062 -0.108357 0.162096 
298 1 -0.0112749 -0.102935 -0.098773 0.143104 
559 1 0.0653941 0.00876625 -0.0269813 0.0712827 
215 1 0.0266157 0.000790703 0.0176487 0.0319452 
180 1 0.0521913 0.0366579 0.041662 0.0761804 
106 1 -0.0487716 0.0134196 -0.0690142 0.0855671 
217 1 -0.0224518 0.0404575 0.0857667 0.0974516 
775 1 -0.0697142 -0.00684775 -0.0856422 0.110642 
3627 2 0.0466148 0.043617 -0.0561879 0.0850438 
608 1 0.185543 0.0371109 0.0585749 0.198077 
3118 1 -0.0407776 0.0212534 -0.0503003 0.0681516 
562 1 -0.121365 0.0191933 -0.0517159 0.133313 
70 1 0.0239306 0.019766 0.0781374 0.0840762 
121 1 -0.0149218 -0.052928 0.0152642 0.0570704 
1118 1 0.010697 0.0275028 0.0704043 0.0763387 
210 1 0.0132401 -0.0414652 0.120765 0.12837 
232 1 -0.0022077 -0.00203099 -0.0686912 0.0687566 
4214 2 0.0394574 0.100413 0.0912907 0.141328 
3712 2 -0.0299188 -0.00461263 -0.0697635 0.0760483 
65 1 -0.0445514 -0.0722012 -0.0115428 0.0856217 
226 1 0.0442147 -0.0455064 0.059209 0.0867841 
532 1 0.0225836 0.000269829 0.113304 0.115533 
3578 2 0.00516864 -0.0590869 -0.0502147 0.0777142 
473 1 0.0504717 -0.0422199 -0.0552948 0.0859502 
246 1 0.0365801 -0.0400678 0.0573244 0.078928 
221 1 -0.0436118 0.0123955 0.0286462 0.0536307 
4034 2 0.0553675 -0.0241764 0.066195 0.0896205 
4071 2 0.0562628 -0.0214108 0.115289 0.130059 
2838 1 0.0391792 0.0461594 0.0438113 0.0747337 
536 1 0.0733846 0.0939155 0.118787 0.168273 
894 1 0.080741 -0.0750504 0.0365507 0.116136 
289 1 -0.0141546 -0.034839 0.0549769 0.0666076 
351 1 0.0556896 0.110555 0.0155688 0.124765 
197 1 -0.00654007 -0.113462 -0.0805268 0.139287 
3135 1 -0.131122 0.0319332 0.051462 0.144433 
303 1 -0.0242872 0.00496874 0.0356104 0.0433896 
1415 1 0.085898 -0.133524 -0.0078416 0.158961 
527 1 0.0188552 -0.0867076 0.0426265 0.0984416 
3002 1 -0.0446625 0.0146163 0.0968987 0.107693 
3189 1 0.00680061 -0.125421 -0.0121256 0.126189 
712 1 -0.0415819 -0.075631 -0.0018069 0.0863271 
718 1 0.030066 -0.0906736 0.0407801 0.103869 
3469 2 0.0302916 -0.0550041 -0.00874005 0.0633989 
110 1 0.124858 -0.0409798 -0.0503345 0.140721 
4177 2 -0.0340594 -0.113854 0.0947116 0.151964 
93 1 -0.0282576 -0.0813571 0.108292 0.138364 
569 1 0.00555268 -0.00400216 -0.109934 0.110147 
639 1 0.0528622 -0.0582656 0.0188629 0.0809018 
21 1 -0.0447659 -0.0675428 0.0884598 0.119963 
96 1 0.0883432 0.0696721 -0.0755659 0.135532 
167 1 0.0573058 0.0366902 0.0679357 0.0961529 
1178 1 0.0304345 0.0513333 -0.0527318 0.0796367 
3353 1 -0.0333983 -0.0424821 -0.0310116 0.0623049 
823 1 -0.00231225 -0.0136332 -0.0176891 0.0224526 
2596 1 -0.0152285 -0.117157 0.0724963 0.138613 
50 1 -0.0059516 -0.11242 0.0320053 0.117039 
2495 1 0.174525 -0.0347302 0.0134918 0.178458 
28 1 -0.0973366 0.0842475 0.0151287 0.129618 
3055 1 0.134769 0.0726288 0.0225615 0.154747 
12 1 0.135506 0.0240246 -0.0611432 0.150591 
3835 2 -0.0192156 -0.060522 0.0727846 0.0965906 
4170 2 0.0147831 0.00715845 -0.0876798 0.089205 
738 1 0.0368476 -0.0309956 -0.0729013 0.0873675 
2453 1 -0.0446186 0.0983211 0.0719056 0.129724 
3167 1 0.0765627 -0.0577063 -0.0346141 0.101931 
339 1 0.137194 -0.0217155 0.00493251 0.13899 
390 1 0.0904376 -0.0215543 0.0589819 0.110102 
203 1 0.0064074 0.00091556 -0.0257373 0.0265387 
3582 2 0.0290504 0.0822894 -0.116814 0.145812 
3632 2 0.0109345 -0.0455048 -0.00658196 0.0472607 
231 1 -0.0204648 0.0179613 0.084977 0.0892328 
323 1 -0.0527488 -0.0724293 0.00722356 0.0898923 
3244 1 0.0135792 -0.0352242 -0.0591536 0.0701733 
118 1 0.136708 -0.0271552 0.0331426 0.143265 
155 1 -0.0965862 -0.0618479 -0.0936129 0.148045 
2735 1 -0.0263663 -0.0592758 -0.166028 0.178253 
2768 1 -0.0495961 0.131858 0.0943269 0.16954 
2960 1 -0.0181706 0.0716389 -0.0602123 0.0953301 
29 1 -0.03638 -0.00500544 0.113362 0.119161 
753 1 -0.063605 -0.0411347 -0.0211853 0.0786542 
3467 2 -0.0503677 0.0281276 0.0243844 0.0626312 
3916 2 -0.0854659 0.0305906 0.0394873 0.0989922 
3251 1 -0.0427279 -0.0211485 0.00669299 0.0481428 
4289 2 0.0151161 0.053613 -0.0736137 0.0923138 
725 1 -0.0727896 0.0470297 0.0290358 0.0913958 
1133 1 -0.0164094 0.0235674 0.00695446 0.0295475 
546 1 -0.112662 0.0339757 -0.0390582 0.123986 
4187 2 -0.0583147 -0.04152 0.053702 0.0894898 
437 1 -0.156399 0.0324848 -0.0587289 0.170191 
53 1 0.0596318 -0.0100308 -0.0813596 0.10137 
593 1 -0.0804274 -0.0103912 0.012294 0.0820225 
609 1 -0.0440421 0.00363734 -0.116475 0.124576 
3040 1 0.0381452 0.0729264 -0.0704543 0.108338 
737 1 0.109191 0.138639 0.0231898 0.177992 
233 1 -0.0552985 0.0696822 0.0764786 0.117314 
610 1 -0.0915161 -0.0903575 0.0741129 0.148433 
247 1 0.0799289 0.0871201 0.0645608 0.134709 
89 1 -0.0312353 -0.084001 -0.00277907 0.0896635 
3149 1 -0.0987328 -0.0424022 0.116966 0.15883 
550 1 0.0372896 -0.0392785 -0.0913621 0.106209 
147 1 0.00470096 -0.129899 0.151548 0.199656 
3554 2 -0.17423 -0.0158506 -0.0248547 0.176706 
3786 2 -0.0889824 0.0153294 0.0342146 0.0965583 
5 1 0.0925755 0.0200317 -0.0723368 0.119181 
2591 1 0.0287267 0.10783 0.0580369 0.125781 
3232 1 -0.057059 0.0601548 -0.0296062 0.0880389 
1215 1 0.0337728 0.022686 0.0117492 0.0423473 
859 1 0.0645005 -0.00862421 0.0693772 0.0951204 
3152 1 0.0432503 -0.0927673 -0.0583917 0.117839 
2936 1 -0.0457005 -0.0618111 -0.0742451 0.106871 
59 1 0.0549941 -0.09404 0.00660941 0.10914 
2461 1 -0.103006 -0.101821 -0.129714 0.194432 
988 1 -0.0245632 0.0968006 -0.215744 0.237737 
23 1 0.0294029 -0.0287992 -0.0512437 0.0657255 
3743 2 -0.0263531 0.0370626 0.0271921 0.0529861 
3023 1 -0.0611941 0.0856841 -0.0523907 0.117606 
151 1 0.0847483 -0.0600891 0.145818 0.179042 
43 1 0.0452221 -0.00240457 -0.148091 0.154861 
3730 2 -0.0476376 0.00189985 -0.0776665 0.091132 
1454 1 -0.120246 -0.00111867 0.0237212 0.122569 
424 1 0.0901154 -0.0181396 -0.000840691 0.0919268 
3478 2 0.0809215 0.0179656 -0.0126545 0.0838522 
3611 2 0.0697351 -0.0390154 -0.0565596 0.0978988 
3346 1 0.0108275 -0.00474936 -0.0427363 0.0443417 
3199 1 -0.0156194 0.0189803 -0.0936191 0.0967923 
100 1 -0.0592836 -0.193355 0.00648058 0.202343 
78 1 0.0317697 -0.00430861 -0.0269357 0.0418737 
2500 1 -0.0880748 -0.0791116 -0.0421691 0.125674 
3188 1 -0.00553285 0.169099 -0.0181619 0.170161 
3491 2 0.00961018 0.133565 0.0576519 0.145793 
717 1 -0.0942991 0.00904834 0.0766748 0.121874 
2931 1 -0.109949 -0.0151155 0.00815428 0.111282 
691 1 -0.00155838 0.00676944 0.0119166 0.0137934 
825 1 0.0896816 -0.0300623 0.0673821 0.116133 
3634 2 0.11849 0.140174 0.071896 0.197123 
140 1 -0.00812621 0.037029 0.0325414 0.0499613 
174 1 -0.00499263 -0.0882043 -0.0649425 0.109647 
3493 2 0.102356 -0.0209422 0.140827 0.17535 
529 1 0.0954737 -0.0326722 -0.0213029 0.103134 
1480 1 0.0799551 0.0107998 -0.00389464 0.0807751 
2968 1 0.0552381 -0.122189 0.0051227 0.134193 
3464 2 0.0480122 0.0387153 -0.0280643 0.0677617 
98 1 -0.0671063 -0.060265 0.0520834 0.104153 
216 1 0.116192 -0.0437763 -0.0175756 0.125403 
40 1 0.0865598 -0.133427 -0.0439257 0.164999 
4228 2 -0.0723544 -0.0167492 -0.0362851 0.0826577 
1130 1 0.0280318 0.0341894 -0.00286793 0.0443048 
2994 1 -0.020825 -0.0679167 0.0427908 0.0829302 
3041 1 -0.0885152 0.0734534 0.0101672 0.115472 
604 1 0.0618595 0.0222958 -0.0441723 0.0792142 
721 1 0.0680419 -0.0117693 0.0345269 0.0772031 
3164 1 0.0216364 0.00401964 -0.0363626 0.0425033 
241 1 -0.0380618 0.0537231 0.0128742 0.0670866 
2494 1 0.0403297 0.0261992 -0.0533141 0.0718002 
3010 1 0.107902 -0.051784 0.108502 0.161546 
64 1 0.0345181 -0.14382 -0.0669877 0.162367 
193 1 -0.032873 -0.0284056 0.0687939 0.0813641 
44 1 -0.00748226 -0.0585719 -3.86218e-05 0.0590479 
2996 1 0.130239 0.0791299 0.137163 0.205031 
4212 2 0.0147442 0.00369558 0.0456827 0.0481451 
3279 1 0.0346583 -0.00759606 -0.0121272 0.0374962 
257 1 0.00605151 -0.012119 -0.0126636 0.0185434 
330 1 0.0681284 0.193047 0.0626649 0.214092 
2981 1 0.00261189 -0.114999 0.00305983 0.115069 
103 1 -0.0661751 0.0255244 -0.0524106 0.0881902 
3841 2 0.0050693 -0.0258596 -0.0315351 0.041096 
600 1 -0.0236028 -0.0681244 -0.0156512 0.0737766 
338 1 -0.0493529 -0.121245 0.0158161 0.131857 
4101 2 0.0302965 -0.0146995 0.113653 0.118537 
949 1 -0.0593266 0.0285135 0.0234107 0.0698623 
446 1 -0.07226 -0.0427784 0.134179 0.15829 
3608 2 0.0861538 0.0174279 0.0867062 0.123467 
4217 2 -0.0332771 -0.00372937 -0.00767925 0.0343547 
479 1 0.0327922 0.0263217 -0.0404436 0.0583424 
3335 1 0.0256597 -0.0721002 0.000455589 0.0765315 
1457 1 -0.116832 0.00283882 -0.0519734 0.127902 
3037 1 -0.191357 0.106025 -0.136012 0.257601 
4253 2 0.0794158 0.0442013 -0.139566 0.166552 
387 1 -0.00619024 -0.0809765 -0.0191454 0.0834389 
3736 2 -0.0374681 -0.0800747 -0.124948 0.153062 
1991 1 0.0351753 0.030375 -0.0395014 0.0609943 
3394 1 -0.00867908 0.029019 -0.043639 0.0531205 
508 1 -0.0776527 -0.0228234 -0.0631304 0.102646 
3537 2 0.0240822 -0.0477279 -0.159485 0.168206 
747 1 0.0114985 0.0500669 -0.0103659 0.0524057 
497 1 0.0724253 -0.0385046 0.0348747 0.0891306 
958 1 -0.040145 -0.0317966 0.00681216 0.0516629 
3130 1 -0.0558282 0.0326159 -0.122125 0.138185 
4163 2 -0.051567 0.20231 -0.0333551 0.211426 
3643 2 -0.0569575 0.00582121 -0.0164959 0.0595832 
133 1 0.0380419 -0.0154168 0.0338844 0.0532261 
4204 2 -0.0649642 -0.0809794 -0.0117559 0.104481 
86 1 0.0467996 -0.00970622 -0.0790406 0.0923679 
759 1 -0.021649 -0.027502 0.0293494 0.0456774 
3411 1 0.0468594 0.0194061 0.061431 0.0796628 
835 1 -0.0172118 0.116972 0.071216 0.138023 
3057 1 0.0271979 0.0277179 0.0174869 0.0425887 
3620 2 0.0129517 -0.0755569 0.0285383 0.0817987 
704 1 0.0207963 -0.0385629 -0.123725 0.131253 
3599 2 -0.0399447 0.0825246 0.0344751 0.0979511 
157 1 -0.0493784 0.0940564 0.0717461 0.128189 
54 1 0.00581159 -0.242756 -0.0422323 0.24647 
493 1 0.0419965 0.137076 0.0137381 0.144021 
204 1 -0.159279 -0.0176154 0.061734 0.17173 
254 1 0.0411966 0.00601549 0.0609867 0.0738426 
178 1 0.116621 -0.0121439 -0.159364 0.19785 
580 1 -0.0318506 -0.0539933 0.155821 0.167958 
67 1 0.0433253 -0.10141 -0.0564383 0.12388 
2988 1 0.0544531 0.0318286 -0.0401916 0.0747901 
3030 1 -0.0320672 0.0336501 0.126613 0.134876 
4050 2 0.0496393 0.115532 -0.0639673 0.141079 
3479 2 -0.0104139 0.00397961 -0.0961915 0.0968354 
2934 1 0.042391 0.0378042 -0.071307 0.0911638 
3216 1 -0.107814 -0.0101487 -0.00224853 0.108314 
234 1 0.0974094 -0.0914164 -0.0671856 0.149531 
1036 1 0.094121 -0.132484 -0.0238338 0.164252 
3369 1 -0.0783859 -0.0307559 0.0221063 0.0870572 
3607 2 -0.0526043 0.0322941 -0.01667 0.0639375 
3139 1 0.076877 0.0403543 -0.027291 0.0910129 
644 1 -0.143099 -0.0819643 -0.0769081 0.181962 
1278 1 0.0385617 0.0390965 -0.0727294 0.0911324 
4269 2 0.0288088 0.0965586 0.0362774 0.107096 
3007 1 -0.00599369 -0.0578 0.0576039 0.0818228 
4089 2 0.0364871 0.057034 -0.00640468 0.0680089 
214 1 -0.00780761 -0.0458412 0.0569671 0.0735365 
640 1 0.0365859 0.00766012 -0.0147136 0.0401708 
199 1 -0.0439766 -0.0959308 -0.10863 0.15145 
245 1 0.0853505 0.0168019 0.137327 0.16256 
2758 1 -0.118141 -0.0612096 -0.0493364 0.141908 
3056 1 -0.0605098 -0.0944976 0.0104291 0.112694 
3468 2 -0.0998483 0.0609741 0.0359713 0.122399 
563 1 -0.0380504 0.144977 0.0289073 0.152649 
3644 2 0.0367097 0.0559044 -0.0450484 0.0806366 
1149 1 0.0224053 -0.0194782 -0.00344121 0.0298871 
2684 1 -0.206683 0.015133 0.0283894 0.209172 
249 1 -0.106527 0.0704179 0.0621011 0.141997 
3096 1 0.0723528 0.115604 -0.0645106 0.150867 
240 1 0.0211794 -0.0464022 0.0958129 0.108544 
181 1 -0.0997099 -0.0441608 0.174752 0.205987 
46 1 0.0583328 -0.00441851 -0.0442461 0.0733482 
3211 1 0.0469516 0.0156547 -0.0241065 0.0550513 
354 1 0.0530059 -0.0312193 0.0924709 0.111064 
2939 1 0.00682538 0.0729823 0.0201637 0.0760235 
3512 2 0.0185039 0.0622529 0.0287706 0.0710321 
3603 2 -0.141269 0.117327 -0.0687443 0.196082 
3701 2 -0.00327234 0.0235797 0.0783792 0.0819147 
3513 2 -0.00725252 -0.0159831 0.0400373 0.0437155 
312 1 -0.117085 -0.108765 0.0296571 0.162537 
587 1 -0.0182632 0.0294616 0.00391779 0.0348838 
134 1 -0.0121312 0.0667114 0.0673711 0.0955847 
135 1 -0.103646 -0.0816747 -0.11505 0.17507 
1179 1 0.124015 0.0219637 0.0738691 0.14601 
3003 1 0.00444412 0.0420607 0.004473 0.0425307 
191 1 -0.0398905 -0.000744389 0.0922783 0.100534 
685 1 -0.0120799 -0.0427645 -0.072143 0.084731 
602 1 -0.135237 -0.0250237 0.0549574 0.148106 
195 1 -0.0973131 0.0496013 -0.0419874 0.117017 
3092 1 -0.0477693 -0.0371545 -0.00289122 0.0605864 
4195 2 -0.112851 0.0138577 -0.0968495 0.149356 
2995 1 -0.191322 -0.0498938 -0.0540081 0.204964 
540 1 -0.132036 0.0149474 0.0657799 0.14827 
674 1 -0.0232219 0.0200076 -0.138478 0.14183 
920 1 -0.0973215 0.102849 -0.0476205 0.149389 
902 1 0.00871732 0.0879418 0.101268 0.134406 
2004 1 -0.116904 0.0166572 -0.0772255 0.141095 
427 1 -0.126509 -0.0190799 -0.080992 0.151421 
4173 2 0.0555504 0.119372 -0.0748685 0.151463 
2950 1 -0.230872 0.00249533 0.0186248 0.231635 
6 1 -0.0819072 0.0924827 -0.0324957 0.127741 
182 1 0.0407914 -0.0384318 -0.114435 0.127422 
690 1 -0.0172573 0.0804442 -0.0355233 0.0896158 
154 1 0.0707579 -0.0077635 0.0379621 0.0806726 
710 1 0.0260735 -0.116964 -0.0613785 0.134639 
3115 1 -0.145246 0.134426 0.0022286 0.197918 
742 1 0.0219653 -0.0370567 -0.0977395 0.106811 
2926 1 -0.184443 -0.0427085 0.114584 0.221298 
80 1 -0.0727682 -0.00689243 -0.00361081 0.0731831 
2977 1 0.00627256 0.0377755 -0.178922 0.182974 
95 1 -0.0919359 -0.00802985 0.0752234 0.11906 
3408 1 -0.0721892 -0.104917 0.105953 0.165665 
3518 2 -0.13553 0.0431249 0.0372006 0.147011 
205 1 -0.0632848 0.0208333 0.0932421 0.1146 
694 1 -0.0142431 0.0133045 0.0508788 0.0544842 
861 1 0.0523591 -0.0298878 -0.0907139 0.108921 
3549 2 0.00901008 -0.172402 0.0529683 0.180581 
4014 2 -0.0188208 -0.0630435 0.0235742 0.0698888 
3401 1 -0.0542677 0.0997866 -0.0437911 0.121737 
1077 1 -0.0137477 -0.0634422 0.0879912 0.109345 
3234 1 -0.0807908 -0.0733425 0.0582032 0.123668 
3393 1 -0.0392175 -0.021267 -0.0129967 0.0464673 
3341 1 -0.0899551 0.0554126 -0.11963 0.159605 
512 1 0.0859989 0.0245409 0.119311 0.149108 
300 1 -0.0333984 -0.0324492 0.0348183 0.0581439 
393 1 -0.0180077 -0.0871844 -0.0626174 0.108841 
2740 1 0.0348877 -0.0103378 0.00587672 0.0368586 
3197 1 -0.088162 0.11278 -0.0375289 0.147987 
4006 2 0.0288902 0.0517544 -0.0840259 0.102828 
286 1 -0.0418002 -0.100023 -0.005963 0.10857 
886 1 0.0315414 -0.0715677 0.03601 0.0861018 
277 1 -0.0468871 0.024944 0.0212148 0.0571898 
364 1 0.000386423 0.0720003 0.0603084 0.0939218 
1367 1 -0.00636569 -0.0676364 0.0243377 0.0721632 
411 1 0.0429813 0.0205609 0.0149541 0.0499376 
3658 2 0.0855086 -0.0863281 0.108497 0.162898 
334 1 -0.0633734 -0.0021577 0.00299228 0.0634807 
356 1 0.0997424 -0.0899576 -0.0109195 0.13476 
4154 2 0.00113716 -0.0751558 0.0778933 0.108245 
357 1 0.0305069 -0.0423527 0.00591486 0.05253 
265 1 0.0227031 0.068361 0.035658 0.0803751 
3389 1 0.0203284 -0.0809173 -0.0156228 0.0848819 
362 1 0.00670844 0.02944 0.0784367 0.0840477 
478 1 0.00870896 -0.00392942 0.0499955 0.0509002 
4159 2 0.00135719 -0.0634432 -0.115262 0.131576 
2696 1 0.000160593 0.0543186 0.0224429 0.0587726 
780 1 0.0880744 0.0134435 -0.0448586 0.0997503 
966 1 0.0187136 0.073866 0.120051 0.142192 
3612 2 0.0414746 -0.0467169 0.0356558 0.0719302 
433 1 -0.0420962 0.2018 -0.107292 0.232394 
924 1 0.0628189 0.00830805 0.117959 0.133902 
2710 1 0.0353766 -0.00480727 0.0327497 0.0484474 
3313 1 0.0352994 0.0410517 -0.0296916 0.0617486 
3482 2 -0.0551547 0.0555084 -0.0519328 0.0939161 
3290 1 -0.0241616 -0.0681537 0.0308218 0.0786047 
3192 1 0.0587055 -0.107287 0.021199 0.124122 
626 1 0.106041 0.0567063 0.0525926 0.131249 
3333 1 -0.0421727 -0.0398356 -0.0737202 0.0938087 
3303 1 -0.0425248 -0.0554533 0.0671289 0.0969006 
3526 2 -0.0550039 0.0458882 -0.0552589 0.0904694 
3249 1 0.0285071 0.121886 -0.0286391 0.12841 
92 1 0.0117797 0.0104997 0.0623283 0.0642948 
3379 1 0.0582776 0.0960249 0.0804849 0.138184 
1449 1 -0.0818391 -0.0150915 0.0735033 0.111032 
903 1 0.029037 0.0845671 0.0252365 0.0929065 
160 1 0.0113345 0.0628937 -0.0253889 0.0687654 
553 1 -0.0238106 -0.0882 -0.000543352 0.091359 
3808 2 -0.0275298 0.0174115 -0.0458349 0.0562307 
462 1 -0.00745698 -0.191684 0.0607864 0.201229 
2966 1 0.0466768 -0.0645558 0.0791775 0.112318 
3022 1 -0.072145 -0.00718625 -0.0528329 0.0897099 
750 1 -0.0124626 -0.0755785 -0.0431861 0.0879344 
3162 1 0.0427456 -0.0498164 -0.128478 0.144275 
449 1 -0.0284009 -0.0334646 -0.0984616 0.107802 
3631 2 0.0438534 -0.208323 -0.108763 0.239062 
287 1 -0.0292612 0.00411512 -0.0200041 0.0356835 
3647 2 -0.0863929 0.0466812 -0.0231228 0.100884 
2890 1 -0.0182804 0.040199 0.0170091 0.0473228 
1285 1 -0.0245517 0.119343 0.0446799 0.129776 
943 1 -0.00163031 -0.0537101 -0.018507 0.0568326 
3305 1 0.0357419 0.10979 0.058893 0.129614 
3209 1 0.0161759 0.0432395 -0.156954 0.163603 
3409 1 0.0681944 -0.0436739 -0.0190341 0.0831876 
4318 2 -0.0988367 0.0399413 0.0743738 0.129983 
763 1 0.0551265 0.028461 0.0879651 0.107642 
3883 2 0.0513519 -0.0224304 -0.0515497 0.0761414 
3531 2 -0.0195029 0.00705333 0.0171943 0.0269399 
3227 1 0.0150143 -0.113311 -0.0146829 0.115241 
373 1 0.0123008 -0.0396495 0.00345899 0.0416576 
4297 2 -0.0596552 -0.0105447 0.167317 0.177946 
3404 1 0.0617183 -0.0599725 0.00218559 0.086085 
3221 1 0.0374098 0.0146067 0.0241621 0.0468685 
398 1 0.0146457 0.0625693 0.0657004 0.0919019 
2732 1 0.0955815 0.000777057 -0.0378766 0.102816 
4123 2 0.0137021 -0.0791362 0.0427294 0.090973 
1145 1 0.00469335 -0.00465794 0.0442844 0.0447754 
836 1 0.123865 -0.0498352 -0.0963353 0.164641 
309 1 0.00726536 0.0469944 0.0688801 0.0837002 
394 1 0.0225948 0.034453 0.0720498 0.0829983 
412 1 0.0371125 0.0584668 0.0214178 0.0724875 
1212 1 -0.00579275 0.0217449 -0.0489406 0.0538663 
3573 2 -0.0275942 0.0738037 0.118161 0.142023 
3360 1 -0.0498689 0.0238739 -0.0728574 0.0914607 
3319 1 0.0128351 -0.0216507 0.0556067 0.0610377 
3588 2 0.0170085 0.0924944 0.0680231 0.116067 
2365 1 0.0653598 -0.032989 -0.0690182 0.100617 
306 1 -0.117701 0.113645 -0.0860868 0.184877 
3093 1 0.0193595 0.0537769 0.0495697 0.0756564 
2745 1 0.0115988 -0.0157935 -0.0326977 0.0381197 
355 1 -0.156145 -0.00234636 -0.028547 0.158751 
3097 1 0.0903682 0.0609502 -0.0690553 0.129035 
228 1 -0.00498103 -0.00290049 -0.0280159 0.0286027 
3324 1 0.0337605 0.123194 -0.045828 0.135708 
951 1 -0.0953141 0.0497757 0.00923784 0.107925 
2737 1 -0.150549 0.0548705 -0.0194253 0.16141 
2959 1 0.102237 0.128111 0.030012 0.16663 
4284 2 -0.0247548 -0.0111089 0.068968 0.0741134 
4225 2 0.015545 0.0478657 0.0528598 0.0729858 
3483 2 -0.0198079 0.0704533 -0.0531832 0.0904681 
3337 1 -0.0604991 -0.0427854 -0.0152304 0.0756485 
4116 2 -0.0614355 -0.0492855 0.0905515 0.120012 
716 1 0.0491339 0.0283953 -0.141014 0.152005 
389 1 0.0089466 -0.144046 -0.0272248 0.146869 
601 1 -0.0522801 0.0736925 0.0686161 0.113455 
3094 1 -0.0213626 -0.00465823 0.0364102 0.0424708 
3617 2 -0.136288 -0.058017 0.0793605 0.168043 
206 1 -0.0280829 -0.0783522 0.0482208 0.0961923 
71 1 -0.0152126 0.0362983 0.00409243 0.0395694 
3561 2 0.0180388 0.0923202 -0.144238 0.172201 
3676 2 0.102775 -0.023638 0.0733656 0.128467 
353 1 -0.0382634 -0.0479859 -0.00633629 0.0617 
962 1 0.0241478 -0.0305603 -0.0818009 0.0906004 
1324 1 -0.0117405 -0.000274548 0.0220197 0.0249556 
4185 2 -0.0684764 -0.0795112 -0.0150266 0.106004 
388 1 0.0604645 0.0944476 0.0417245 0.119655 
1313 1 0.0450389 0.0861612 0.0108837 0.09783 
444 1 0.0239438 0.129528 -0.137644 0.190517 
3668 2 0.104961 0.106771 -0.0565396 0.160043 
838 1 -0.170133 -0.00191226 0.0318264 0.173095 
460 1 -0.187742 -0.0167868 -0.000138861 0.188491 
499 1 -0.101131 0.052409 -0.0156803 0.114979 
3548 2 -0.214835 0.0045069 -0.000342585 0.214883 
291 1 0.063619 0.0829524 -0.0273299 0.108053 
482 1 -0.118456 0.115069 -0.0673702 0.178358 
1314 1 -0.0332116 0.0378014 0.0452744 0.0676884 
3672 2 -0.0154208 0.131612 0.107659 0.170734 
375 1 0.0872251 0.00623547 -0.034328 0.0939442 
94 1 -0.0699988 0.0123155 -0.0605204 0.09335 
3281 1 -0.115887 0.0315164 -0.00829526 0.120383 
37 1 0.0232009 0.0247618 0.0870081 0.0933908 
3321 1 0.0670941 -0.00310233 0.0412662 0.0788298 
4264 2 0.102231 -0.0730367 0.0136957 0.126384 
3664 2 -0.0886813 0.00155019 0.0171403 0.0903359 
3380 1 -0.0242407 0.0945679 0.0805721 0.12658 
901 1 -0.0642859 0.0315165 0.0474037 0.0858667 
4309 2 -0.0576019 -0.00621817 0.0126579 0.0593032 
392 1 0.0302072 0.0428787 0.0471335 0.0705168 
436 1 0.175695 0.156982 -0.0820698 0.249495 
792 1 0.0698528 -0.053827 0.0466908 0.0997838 
3293 1 0.0928982 0.00606251 -0.0451442 0.103464 
1354 1 -0.113441 0.0381911 0.160425 0.200159 
318 1 -0.0785243 -0.138847 0.0315742 0.162608 
3350 1 -0.0962921 -0.0671177 -0.0291979 0.120952 
3314 1 0.0163491 -0.0517816 -0.0508639 0.0744027 
2861 1 -0.0193744 0.0641276 0.0743476 0.100076 
3180 1 -0.126797 -0.052309 0.0790005 0.158287 
3150 1 0.0530252 0.045397 0.0723091 0.100505 
3320 1 -0.115065 -0.218202 0.0677377 0.255813 
3095 1 -0.0927272 -0.020302 0.00864544 0.0953166 
2479 1 0.0551997 -0.0654851 -0.0271633 0.0898507 
614 1 0.110642 -0.0167722 0.0123181 0.112582 
771 1 -0.0157179 0.0680734 0.0200132 0.0726744 
3392 1 -0.0399955 0.019932 -0.00075225 0.0446933 
3257 1 0.0196778 -0.0243144 -0.0372189 0.0486174 
2961 1 -0.0095285 -0.0156005 -0.0383581 0.0424913 
483 1 -0.0350658 0.107917 0.120168 0.165276 
4271 2 -0.0600661 0.0757835 0.0358153 0.10312 
1172 1 -0.0394867 -0.0371075 0.0620635 0.0823896 
652 1 -0.0926976 0.0373071 -0.00111938 0.0999296 
3568 2 -0.0985918 0.0405885 0.0412239 0.114312 
3433 1 0.0603237 -0.0278659 -0.0388405 0.0769678 
3419 1 -0.102357 0.0609147 0.0507972 0.129491 
248 1 0.00146978 0.0155773 0.0308207 0.0345648 
3560 2 -0.100993 -0.0765978 0.0450139 0.134511 
3535 2 -0.0620139 -0.00486278 0.0357558 0.0717485 
4028 2 0.0233765 -0.0552774 0.115432 0.130102 
3082 1 -0.0110848 0.004077 -0.00295603 0.0121751 
3487 2 0.0212721 0.0613637 -0.01869 0.067582 
328 1 0.0414851 -0.00240021 0.0332059 0.0531921 
325 1 0.0180426 -0.00630399 0.0518402 0.0552511 
292 1 -0.0782804 0.0214768 -0.0145596 0.0824685 
3444 1 -0.121081 -0.0231479 -0.0218979 0.125203 
908 1 0.0312263 -0.171933 -0.0709745 0.188609 
3504 2 0.239038 -0.119042 0.0288294 0.268592 
423 1 0.120547 0.0849862 0.0303341 0.15058 
502 1 0.0292145 -0.0394112 0.0230197 0.0541908 
3435 1 0.0143748 -0.111779 -0.0912096 0.144984 
430 1 -0.109962 -0.0432274 0.125969 0.172709 
439 1 0.0176934 0.058094 -0.00116358 0.0607398 
3331 1 0.00834674 -0.0219459 0.0119672 0.0263535 
4182 2 0.0399118 0.0219086 0.0280782 0.0534914 
874 1 0.0463368 -0.0600897 0.0697499 0.103068 
980 1 0.0105477 -0.0260087 0.0311959 0.0419629 
810 1 -0.00878134 0.02684 0.0670056 0.0727134 
3312 1 -0.0189992 -0.0328007 0.0874841 0.0953432 
1442 1 0.0252151 -0.101372 -0.0609428 0.120939 
225 1 -0.0957303 -0.0711072 0.104479 0.158545 
4280 2 -0.0578765 0.0842639 0.0139167 0.103169 
416 1 0.0274665 0.0179625 0.0496763 0.0595382 
365 1 -0.014284 -0.0636227 -0.0245167 0.0696631 
3799 2 -0.0239006 -0.0553743 -0.0561826 0.0824259 
2819 1 -0.0271078 -0.0486206 0.12992 0.141343 
382 1 0.112514 0.0766264 -0.113883 0.177483 
404 1 0.0576022 0.0259154 -0.162254 0.174115 
2776 1 0.0828337 0.0836708 0.126863 0.173079 
2973 1 -0.0338676 -0.0715239 0.0370636 0.0873865 
957 1 -0.0190949 0.0356303 0.0178677 0.0441971 
795 1 0.0270712 -0.136994 0.186621 0.233083 
490 1 -0.0893845 -0.0111911 -0.0102783 0.0906669 
3266 1 -0.122233 0.0178261 0.0770281 0.145575 
2884 1 -0.0817524 0.0107313 -0.0118501 0.0833009 
4298 2 -0.204816 0.135326 -0.0240187 0.246657 
4285 2 0.0435679 0.0444033 0.0939253 0.112658 
496 1 0.0231859 -0.015324 0.0590471 0.0652608 
2993 1 -0.0124204 0.0397519 0.00899584 0.0426076 
4256 2 0.0526843 -0.030303 0.0203819 0.0641041 
471 1 -0.00333905 0.053589 0.102655 0.115849 
517 1 0.0105329 -0.0349236 0.00660494 0.0370705 
279 1 0.0300332 0.0636774 0.0477527 0.0850713 
187 1 0.0565668 0.0876345 0.00809983 0.104619 
917 1 -0.0611145 -0.0494688 -0.0559345 0.0964926 
3322 1 0.0115284 0.0562398 0.0751185 0.0945442 
3863 2 -0.202856 0.0777865 -0.00685377 0.217367 
274 1 -0.0639152 -0.0322927 -0.014619 0.0730869 
1091 1 0.0161902 0.0568535 0.154601 0.165517 
3396 1 0.076646 0.0237128 0.0285339 0.0851533 
349 1 0.112523 -0.0208537 0.0766465 0.137735 
2545 1 -0.0677642 -0.00275131 -0.0521867 0.0855745 
3327 1 -0.121869 -0.0388395 -0.0210456 0.129629 
3674 2 -0.0453864 0.0568504 0.0899006 0.115646 
1418 1 0.203522 -0.00418522 0.0770916 0.217674 
443 1 0.0741682 0.107056 0.0778456 0.15173 
855 1 0.0268191 0.0488768 -0.149771 0.159811 
3420 1 0.0635525 -0.0449891 -0.0570677 0.0965384 
2869 1 -0.0825045 -0.206942 0.030263 0.224828 
4307 2 0.015138 -0.188433 -0.069324 0.20135 
3476 2 0.0296439 -0.105288 -0.0795942 0.135276 
177 1 -0.0187215 0.0162825 0.000770904 0.0248236 
363 1 -0.0617822 -0.157088 -0.0803874 0.186965 
1450 1 -0.0184105 0.0314747 0.00796331 0.0373231 
3559 2 -0.012806 0.0188485 -0.0670362 0.0708033 
347 1 -0.0841474 -0.129166 -0.0417388 0.159708 
4237 2 -0.051363 -0.0115304 0.0153555 0.0548352 
319 1 -0.0881714 0.0303654 0.0332215 0.0989946 
830 1 -0.0766848 -0.017648 -0.00557545 0.0788866 
295 1 -0.053661 -0.0183773 -0.0648147 0.0861288 
937 1 -0.0101629 -0.0101061 0.05442 0.0562757 
268 1 0.0936646 0.00909395 0.0865717 0.127869 
854 1 -0.0165507 0.0868982 -0.0401836 0.0971594 
442 1 0.021474 0.0359811 -0.0567144 0.0705145 
875 1 0.0584232 -0.0567858 0.0284898 0.0863109 
501 1 0.0713571 -0.0186816 0.0159006 0.0754564 
1289 1 0.0603592 0.0317848 0.021753 0.071601 
3291 1 0.128964 -0.082609 0.0190937 0.154339 
314 1 0.0487789 0.0406834 -0.0557232 0.0844962 
474 1 -0.0154245 0.0300522 -0.0234164 0.041102 
3070 1 0.0588435 0.0505909 -0.000212704 0.0776018 
964 1 0.068567 0.098518 -0.00855845 0.120335 
793 1 0.0841474 0.0736519 0.098041 0.148719 
3397 1 0.0116021 0.0126556 -0.0346631 0.0386821 
899 1 -0.0897969 0.0888218 0.0217296 0.12816 
1337 1 -0.0223739 0.0354552 0.017721 0.0455159 
3278 1 0.0179165 -0.00974867 -0.15185 0.153214 
3544 2 0.0738808 0.00859986 -0.0223786 0.0776733 
1430 1 -0.0166563 0.0396111 -0.020062 0.0474231 
3200 1 -0.0425843 -0.0646034 0.0920651 0.120262 
757 1 -0.107057 0.106791 0.0708668 0.166995 
822 1 -0.0254385 0.0105783 0.081894 0.086404 
3678 2 -0.0590249 -0.0295133 0.0871527 0.109319 
699 1 -0.0120486 -0.00658745 -0.0106949 0.0174053 
329 1 0.0404048 0.124991 -0.0814911 0.154584 
3383 1 -0.126524 0.0704177 0.0150143 0.145576 
85 1 0.079025 -0.140831 0.176915 0.239535 
3240 1 -0.0649281 -0.0976651 0.0202039 0.119006 
113 1 0.0237001 0.0855179 -0.0913492 0.127357 
504 1 -0.0837379 -0.250297 0.0523017 0.269066 
581 1 0.0199628 -0.0158757 0.158233 0.160276 
2795 1 -0.0479592 -0.0621758 0.098981 0.126345 
3541 2 0.00470677 0.0320839 -0.0138309 0.0352537 
786 1 -0.01516 -0.0434538 0.115375 0.124215 
800 1 -0.0061023 0.040172 -0.054663 0.0681108 
367 1 0.0263089 0.00563277 0.0389336 0.0473255 
2687 1 0.0351156 -0.152325 0.0187774 0.157444 
3545 2 0.0197742 -0.00567631 -0.0434934 0.0481136 
491 1 0.000630381 0.0812778 0.0353235 0.0886241 
781 1 -0.0456112 -0.0385747 0.172691 0.182731 
3378 1 -0.019643 0.163858 0.0482102 0.171929 
4098 2 -0.0178651 0.110605 -0.0183339 0.113529 
3434 1 -0.0658017 0.0737165 -0.0648509 0.118193 
2814 1 0.00646593 0.156011 0.0252847 0.158178 
1723 1 -0.03443 -0.0185183 0.0250387 0.0464251 
3264 1 -0.0236359 0.000774736 0.10378 0.106441 
440 1 0.0382819 -0.0725464 0.0991731 0.1287 
431 1 0.0917171 0.0348575 0.0181442 0.0997811 
107 1 -0.033341 0.0782079 0.0435876 0.0955404 
1254 1 -0.00989227 0.0259884 -0.139992 0.142727 
968 1 0.0356461 0.0654489 0.00837281 0.0749953 
801 1 -0.00174207 -0.0561106 -0.0554752 0.0789236 
2656 1 0.0405498 0.0763137 -0.113783 0.14288 
421 1 0.0425681 -0.00378156 -0.156769 0.16249 
4152 2 -0.0036444 0.16134 -0.0857692 0.182757 
461 1 0.0417466 0.172768 -0.128529 0.219343 
3339 1 -0.028706 0.0897982 0.136652 0.166016 
840 1 -0.0621202 0.0873516 -0.0205965 0.109149 
3436 1 -0.11957 -1.50275e-05 0.0696812 0.138392 
3371 1 -0.13044 0.113417 0.0220354 0.174252 
486 1 0.0110029 -0.0318895 0.045038 0.056271 
308 1 0.0156886 0.00786341 -0.0700129 0.0721787 
307 1 -0.0333292 0.0192116 0.0764692 0.0856006 
208 1 -0.0381152 0.03508 0.00927578 0.0526253 
647 1 0.0158741 0.0922612 0.101751 0.138266 
402 1 0.0233961 0.0205356 0.189147 0.191692 
4143 2 -0.053101 0.00636651 0.142159 0.151887 
2873 1 0.0508929 0.0653082 0.00655416 0.0830554 
1304 1 -0.0288479 -0.0728132 0.0711484 0.105811 
128 1 0.0514497 0.126381 0.0221469 0.138238 
907 1 -0.0337126 -0.00211552 0.104352 0.109683 