ITEM: TIMESTEP
740
ITEM: NUMBER OF ATOMS
4320
ITEM: BOX BOUNDS pp pp pp
0.0000000000000000e+00 1.9309999999999999e+01
0.0000000000000000e+00 1.9309999999999999e+01
0.0000000000000000e+00 9.6549999999999994e+00
ITEM: ATOMS id type c_displacement[1] c_displacement[2] c_displacement[3] c_displacement[4] 
3196 1 0.02298 0.0655911 0.0936092 0.116589 
381 1 -0.0371172 -0.0325139 -0.0494141 0.0698326 
327 1 -0.0164818 0.0538782 0.0301853 0.0639192 
484 1 -0.0034732 0.186797 0.0193197 0.187826 
728 1 0.0237526 0.019844 -0.00829175 0.0320425 
817 1 0.0313896 -0.0476297 0.100344 0.115424 
3006 1 0.053953 0.0564116 0.105458 0.131205 
3679 2 -0.154778 0.0394557 0.142891 0.214314 
59 1 0.0816103 0.0561566 0.0149243 0.100183 
2945 1 -0.00792677 0.199096 -0.09381 0.220232 
3230 1 0.104297 0.0279124 0.0210729 0.110005 
3651 2 0.0331498 0.14448 0.0173018 0.14924 
66 1 0.0748344 0.162701 -0.0313635 0.181812 
400 1 -0.189115 0.106459 -0.130152 0.253056 
677 1 -0.00735412 0.0253426 0.0423755 0.04992 
623 1 0.0426049 -0.118435 -0.135461 0.18491 
87 1 0.087897 0.136414 -0.0449996 0.168403 
3199 1 0.0808848 0.0616262 -0.0214948 0.103933 
727 1 0.040686 -0.058759 0.0227609 0.0750068 
688 1 0.0184732 0.117811 0.143796 0.186811 
58 1 0.0677668 -0.00852443 -0.147954 0.162958 
3514 2 -0.0980504 0.0684807 -0.172716 0.210082 
18 1 0.171615 0.133803 0.177416 0.280769 
3618 2 0.175898 -0.0691261 -0.071975 0.202235 
190 1 0.000816078 0.0396998 -0.0311226 0.0504515 
298 1 0.0315666 -0.0552323 0.0684587 0.0934541 
559 1 -0.0636172 0.0242392 -0.0704581 0.0979746 
110 1 0.0538936 -0.0959144 -0.00262986 0.11005 
180 1 0.0993098 0.0232871 -0.0278978 0.10575 
106 1 -0.0916891 -0.0561646 0.0464392 0.117124 
217 1 -0.0718901 -0.0477915 0.108756 0.138852 
775 1 0.0367396 0.0157518 0.0362709 0.0539768 
3627 2 0.00420536 0.0432369 -0.0045175 0.0436752 
608 1 -0.0263633 -0.036813 -0.00280551 0.0453662 
2478 1 0.14332 0.07542 0.0411677 0.167104 
3118 1 -0.0250042 0.0749663 -0.150086 0.16962 
562 1 0.00530355 0.0266352 -0.14677 0.149262 
70 1 0.0759961 0.0881667 -0.024499 0.11895 
121 1 0.0665234 0.0937807 -0.13247 0.175409 
1118 1 -0.129648 -0.155692 -0.153053 0.253917 
210 1 0.0134828 0.0311266 0.116048 0.120904 
232 1 -0.00802369 0.140825 -0.0282655 0.143857 
4214 2 0.097302 0.126239 0.00204123 0.159399 
4170 2 -0.000640103 0.0666448 -0.0360228 0.07576 
65 1 -0.0547901 0.00816499 -0.0722356 0.0910308 
226 1 0.212359 -0.0683522 0.073361 0.234841 
532 1 0.0477623 0.0766545 0.0255596 0.093864 
3578 2 0.0113614 0.0535886 -0.0430399 0.0696653 
473 1 0.110284 0.00904707 -0.10922 0.155477 
246 1 0.0641675 0.127652 -0.0898354 0.168769 
4034 2 0.0762877 0.174489 -0.0265792 0.192283 
155 1 -0.157075 0.0313106 -0.130824 0.206804 
3460 2 0.0276483 0.173923 0.146158 0.228858 
4071 2 0.204068 0.163528 0.391883 0.471124 
2838 1 0.12137 0.24578 0.0539306 0.279369 
536 1 0.0480806 0.0702351 0.0573713 0.102646 
894 1 0.00362862 -0.0132971 -0.0520635 0.0538571 
289 1 -0.0544184 -0.0733217 0.0411311 0.100146 
351 1 -0.00710221 0.149184 0.109158 0.184991 
197 1 0.00429852 -0.0524074 -0.0739472 0.090737 
3135 1 0.0776806 0.111466 0.0784057 0.156865 
303 1 0.00767952 0.166384 0.00940841 0.166827 
1415 1 0.0499216 0.0457111 0.0766442 0.102255 
527 1 -0.197977 0.0833101 0.420768 0.47242 
3002 1 -0.156495 0.223851 0.102884 0.291864 
3189 1 0.0877836 0.0145637 0.0455261 0.0999534 
712 1 -0.0388646 -0.0490734 0.0571242 0.0847457 
718 1 0.0359365 0.07741 0.064721 0.10711 
3469 2 -0.0225126 0.0720966 -0.0169979 0.0774188 
4177 2 0.0954673 -0.584927 0.30659 0.667271 
93 1 -0.134831 0.203562 0.251472 0.350507 
569 1 0.0240646 0.0359342 0.108124 0.116452 
639 1 -0.121179 0.104067 0.125586 0.20319 
21 1 -0.0760626 0.0335749 0.131293 0.155404 
96 1 0.0430217 -0.0540327 -0.0610567 0.0921863 
3353 1 -0.0310456 -0.143733 -0.00654257 0.147193 
823 1 0.0485866 -0.00875098 0.0499792 0.0702507 
2596 1 0.034864 -0.180476 0.0456225 0.18939 
50 1 0.0676692 -0.0813614 0.138365 0.174194 
2495 1 0.143036 0.073033 0.270344 0.31445 
28 1 0.0296178 0.0395594 0.0029546 0.0495065 
3055 1 0.0439745 0.0463439 0.047338 0.0795136 
12 1 0.146845 0.129199 -0.00896491 0.195796 
3346 1 0.13295 0.0382057 -0.00764811 0.138542 
738 1 0.00554875 0.069751 -0.0546887 0.0888079 
2453 1 0.216042 0.187493 -0.112019 0.307207 
3167 1 -0.0680827 0.0259796 -0.0234016 0.0765364 
339 1 -0.0153489 0.236597 0.0188149 0.237839 
988 1 0.0335375 0.0951213 -0.0460946 0.110894 
3251 1 0.0157127 0.0856934 -0.0129584 0.0880805 
1454 1 -0.104056 0.155446 -0.0827348 0.204539 
390 1 0.12291 0.0643264 0.0976042 0.169621 
203 1 0.0493569 -0.0366996 0.0365805 0.0715618 
3582 2 0.00895297 0.335025 -0.000119121 0.335144 
3632 2 -0.0077726 0.251583 -0.193999 0.31779 
231 1 0.107173 0.0805602 0.0388241 0.139582 
323 1 0.0686038 0.166307 0.00370806 0.179939 
3244 1 -0.0205175 0.140159 -0.105266 0.176483 
118 1 0.194237 0.135357 -0.12978 0.269986 
2735 1 0.0595436 -0.0464396 -0.0488909 0.0899578 
2768 1 0.0536367 0.0453302 -0.0678605 0.0976564 
2960 1 -0.13058 -0.00957378 -0.0150272 0.13179 
29 1 0.0377087 0.100286 -6.00844e-05 0.107142 
753 1 0.0621869 -0.173382 0.0461824 0.189898 
3467 2 -0.0510202 -0.0055946 -0.0824977 0.0971608 
4289 2 -0.202859 0.104949 -0.0198654 0.229261 
3712 2 -0.0732039 0.0417798 -0.122868 0.149 
3478 2 0.232841 0.0998532 -0.08393 0.266889 
725 1 0.0224499 0.0720107 0.102562 0.127313 
4053 2 0.076471 0.0326562 -0.00686067 0.0834345 
3611 2 0.171081 0.0384994 -0.00370134 0.175399 
4187 2 -0.0580363 -0.183881 -0.0476556 0.198624 
437 1 -0.0165407 0.00977542 -0.0566394 0.0598095 
53 1 0.112819 -0.0524677 0.0828623 0.14949 
593 1 0.036652 -0.0173242 0.104128 0.111741 
609 1 0.154504 -0.0683046 0.0420482 0.174084 
3040 1 0.0893838 -0.044954 -0.0349217 0.105971 
546 1 -0.0310743 0.0227826 0.152566 0.157357 
167 1 -0.0568898 0.111427 0.205084 0.240233 
1160 1 -0.213181 -0.0999414 0.382191 0.448892 
610 1 0.125038 -0.0638906 0.0802398 0.161725 
247 1 -0.0316944 -0.124221 0.164204 0.208322 
89 1 -0.0799216 0.107255 0.187781 0.230549 
3149 1 0.0561176 0.153551 0.285413 0.328919 
550 1 -0.0125753 -0.0187868 0.120842 0.122939 
147 1 0.0535478 0.16869 0.26361 0.317513 
3554 2 -0.0667777 0.0715093 -0.00915887 0.0982687 
3786 2 -0.211885 0.16451 0.114357 0.29161 
5 1 -0.0338075 0.15719 0.154356 0.222885 
2591 1 -0.0370737 0.159693 0.175917 0.240464 
3232 1 0.0484658 -0.051573 -0.151524 0.167237 
1215 1 0.084609 0.00686388 -0.0571676 0.102342 
859 1 0.0319629 0.142774 0.093799 0.173794 
3152 1 -0.0728967 0.0817427 0.0423339 0.117422 
553 1 0.0478562 -0.0115555 -0.0292085 0.0572441 
920 1 -0.0706478 -0.10009 0.160678 0.202056 
2461 1 0.0076308 -0.0408897 -0.141826 0.1478 
23 1 -0.0045561 0.169464 -0.123368 0.209663 
3743 2 0.00737798 0.171352 0.0301476 0.174141 
3023 1 -0.0665166 0.277547 -0.0475025 0.289332 
151 1 0.0379491 -0.0329998 0.0594824 0.0778927 
43 1 -0.0886929 -0.0130773 -0.0184182 0.0915242 
3730 2 -0.0727358 0.0446293 -0.0873182 0.122093 
424 1 0.0720295 0.0955608 0.027426 0.122769 
4228 2 -0.0155661 0.031181 -0.1148 0.119973 
3586 2 0.0222103 -0.0420447 0.0473172 0.0670818 
2936 1 -0.118219 0.274597 0.0192715 0.299584 
2500 1 0.0495573 0.0627449 -0.0152458 0.0813958 
3188 1 0.0510273 0.0677926 0.0404926 0.0940174 
3491 2 0.0530543 0.201286 -0.0525681 0.214696 
717 1 -0.0681677 0.0811102 0.0208989 0.107993 
2931 1 -0.189212 -0.220663 0.015029 0.291066 
691 1 -0.133262 -0.0243853 -0.130805 0.188317 
215 1 -0.0044621 0.122206 -0.105311 0.161384 
174 1 -0.0452785 -0.225771 0.0481537 0.235248 
3493 2 0.136813 0.102154 0.203135 0.265362 
3634 2 0.053305 0.103081 0.089757 0.146709 
2994 1 0.0798156 -0.1259 0.0521934 0.157942 
529 1 0.054641 -0.0861174 0.00512193 0.102118 
1480 1 -0.0155866 0.104675 0.228692 0.251992 
2968 1 0.0877249 0.0817571 0.0957738 0.153468 
3464 2 -0.106039 -0.0403136 -0.0400224 0.120296 
98 1 0.143857 -0.142011 0.137365 0.244399 
216 1 0.00218946 0.0643522 -0.073172 0.0974686 
40 1 -0.0264973 0.0755852 0.1543 0.17385 
1130 1 -0.00687873 -0.0101591 0.0900738 0.0909055 
187 1 -0.012451 -0.0716875 0.08949 0.115337 
3041 1 -0.0186226 -0.139022 -0.0447389 0.147226 
604 1 -0.081162 0.0272448 0.107841 0.137692 
721 1 -0.236014 0.0627883 -0.0197605 0.245021 
3164 1 0.0227428 0.223199 0.136943 0.262846 
1179 1 0.156101 0.0819023 -0.0919033 0.198801 
103 1 -0.162277 0.151137 -0.108207 0.246749 
64 1 -0.0318885 -0.0915285 -0.157998 0.185358 
193 1 0.0507299 0.205238 -0.0412799 0.215407 
44 1 0.0914561 -0.153887 -0.0376454 0.182928 
2996 1 0.0189551 0.180321 -0.124882 0.22016 
4212 2 -0.0912185 0.202155 -0.0284397 0.223598 
3279 1 -0.0882258 0.0799148 0.0085112 0.119342 
257 1 -0.101933 0.0876568 -0.0439331 0.141436 
178 1 0.0300448 0.123512 -0.0989962 0.161115 
330 1 -0.0733262 0.351462 0.0380499 0.36104 
1133 1 0.136226 0.110241 0.0137261 0.175781 
1991 1 0.0495406 -0.00423249 -0.117567 0.127649 
600 1 -0.0648813 0.0824025 0.022784 0.107326 
338 1 -0.0780988 -0.035681 -0.0847332 0.120633 
4101 2 -0.0804729 0.0916518 0.153742 0.196246 
949 1 -0.113586 0.206804 0.0410052 0.239481 
3608 2 -0.00961591 0.164853 0.0352516 0.168854 
2995 1 -0.160155 -0.132872 -0.0554036 0.215347 
4217 2 -0.118714 0.0490392 0.0701268 0.146341 
479 1 0.00550416 0.0985261 0.0239189 0.101537 
3335 1 -0.0186723 0.00747525 -0.0806529 0.0831229 
1457 1 0.0524558 -0.105239 -0.00231103 0.11761 
3037 1 -0.00505278 0.20512 -0.0641854 0.214987 
4253 2 0.149949 0.0372851 -0.164511 0.225696 
387 1 0.0636866 -0.0831593 -0.0224174 0.107117 
3736 2 -0.10597 0.28236 -0.0259283 0.302703 
3394 1 -0.0848911 -0.111405 -0.00578818 0.140182 
508 1 -0.060804 0.110221 0.036215 0.130986 
3537 2 0.060643 -0.0528936 -0.170347 0.188397 
747 1 -0.0397461 0.151321 0.00471381 0.156525 
497 1 0.0417068 -0.0946756 0.040102 0.110955 
958 1 -0.0973313 -0.0198444 0.0428029 0.108163 
3130 1 -0.0595778 -0.0368558 0.0208121 0.0730823 
4163 2 -0.0848131 -0.193082 0.0837035 0.226892 
3643 2 0.0475162 0.0979284 -0.0546993 0.121819 
133 1 0.00739247 0.158257 0.253454 0.298896 
4204 2 -0.167319 0.0438346 0.0395455 0.177429 
86 1 0.167392 0.0454593 -0.0266901 0.175496 
759 1 0.024727 0.0949038 0.0611951 0.115598 
3411 1 -0.0754324 0.0317665 0.116927 0.142727 
835 1 -0.0766229 -0.0210657 0.260136 0.272003 
3057 1 -0.17267 0.0585625 0.164987 0.245896 
3620 2 -0.0929158 -0.129331 0.0358232 0.163227 
241 1 -0.229402 0.0890636 0.158448 0.292683 
704 1 0.176531 -0.045308 0.0736422 0.196569 
3599 2 -0.144256 0.198237 -0.0486681 0.249953 
157 1 0.0775073 0.0249747 0.0108266 0.0821483 
54 1 0.0172014 -0.00729404 0.0610807 0.0638745 
493 1 -0.0967022 0.356349 -0.0902846 0.380114 
204 1 -0.0922855 0.0940237 0.000229217 0.131746 
254 1 0.0511729 0.088986 -0.112984 0.152652 
67 1 0.0459613 0.107519 -0.0457893 0.125577 
2988 1 -0.193285 0.258471 -0.172741 0.366068 
3030 1 -0.208939 0.198112 -0.003307 0.28795 
4050 2 0.162496 0.202541 -0.0620214 0.266973 
3479 2 0.0367357 0.370452 0.0554427 0.376375 
674 1 -0.0264577 -0.080282 0.0216691 0.0872626 
2004 1 -0.181254 -0.00606522 0.0566738 0.190005 
143 1 0.0537987 0.016231 -0.0288228 0.0631546 
3216 1 -0.119953 0.109593 -0.0467401 0.169068 
234 1 0.0178873 0.00305448 -0.0360266 0.0403386 
1036 1 0.0276667 0.0208765 -0.0679269 0.0762584 
3369 1 -0.072755 0.0712317 0.0909037 0.136494 
3607 2 -0.169254 0.0282572 0.0934259 0.195381 
3139 1 -0.000397616 -0.0693561 0.0449379 0.0826428 
644 1 -0.212755 -0.0836323 -0.0474189 0.233469 
1278 1 0.0537021 -0.0360305 0.0433506 0.0778549 
4269 2 -0.0698787 0.137844 0.0895914 0.178636 
3007 1 -0.110358 -0.0390684 0.0292506 0.120668 
354 1 0.0861911 0.153849 -0.00502205 0.176419 
4089 2 0.0380304 -0.0106717 -0.0277184 0.0482546 
214 1 0.0136936 0.00629691 0.102923 0.104021 
640 1 -0.166129 -0.0298239 0.0150552 0.169455 
199 1 0.0235519 -0.0864189 0.141288 0.167288 
245 1 -0.0745531 -0.063957 0.232597 0.252488 
2758 1 -0.0898345 0.0707958 0.0158667 0.115473 
3056 1 -0.00885103 -0.213171 0.0982037 0.23487 
3468 2 -0.071881 -0.0628624 0.0657021 0.115911 
563 1 -0.0188044 0.0267372 -0.03624 0.048804 
2977 1 0.0125065 -0.00316341 -0.0118055 0.0174868 
1149 1 -0.00458497 -0.0621979 -0.0509097 0.0805071 
3916 2 -0.244146 -0.0112152 0.283314 0.374166 
249 1 -0.0642737 -0.00089705 0.0875082 0.10858 
3096 1 -0.0720085 -0.0222431 0.0194375 0.0778318 
240 1 -0.0940449 -0.0145433 0.0306637 0.0999811 
181 1 -0.0616717 -0.0936193 -0.0205995 0.113984 
46 1 -0.0509568 -0.054873 0.0153941 0.0764501 
3211 1 -0.0133704 -0.0746283 -0.0708055 0.103738 
2684 1 -0.119328 -0.0980464 -0.00554568 0.154541 
95 1 -0.000312372 -0.0822086 0.0495145 0.095969 
22 1 -0.0147489 0.12822 0.0242474 0.131323 
3512 2 -0.125131 0.00950797 0.00749004 0.125715 
3603 2 -0.125965 -0.0200798 -0.0645646 0.142965 
3701 2 0.0123141 0.0165394 0.0914648 0.0937604 
3513 2 -0.0104422 0.199295 0.0922491 0.219858 
312 1 -0.0789418 -0.0646705 0.0799651 0.129648 
587 1 -0.00189807 0.0912901 0.0539463 0.106055 
134 1 -0.0187382 0.149043 0.0858926 0.173039 
135 1 -0.151098 -0.0788607 -0.145063 0.223815 
3003 1 -0.104492 0.0729927 0.0570712 0.139655 
191 1 -0.0296615 0.0382007 0.0486905 0.0686284 
685 1 0.078098 0.06345 -0.134414 0.167906 
602 1 -0.240977 0.1118 -0.010531 0.265857 
195 1 -0.0529802 0.0947998 0.060696 0.12441 
3092 1 -0.0508518 -0.00603333 0.0892256 0.102876 
4195 2 -0.251384 -0.108918 -0.0861303 0.287185 
80 1 -0.160249 -0.0810277 -0.0169821 0.180371 
540 1 -0.103583 0.0837872 -0.151137 0.201475 
2981 1 -0.0231273 -0.107098 -0.0352358 0.115093 
427 1 -0.134981 0.0492741 -0.0478409 0.151448 
4173 2 -0.0443059 -0.190073 0.0485587 0.201118 
2950 1 -0.189117 -0.117566 0.0480454 0.227805 
6 1 -0.0824281 0.0885979 0.0532061 0.132192 
182 1 0.0236993 -0.162497 -0.184913 0.247305 
690 1 0.071338 -0.0935809 0.0661882 0.135009 
3408 1 -0.226579 0.0439409 0.169136 0.28614 
902 1 -0.000834456 -0.0706325 -0.0646804 0.0957768 
154 1 -0.055462 0.072008 -0.184462 0.205639 
710 1 -0.247488 -0.0395886 -0.226543 0.337845 
3115 1 -0.206536 0.0516489 0.0804592 0.227592 
742 1 -0.102473 0.034431 -0.0101125 0.108574 
2926 1 -0.205839 -0.144022 0.149404 0.29229 
446 1 0.0132743 0.00606112 0.106382 0.107378 
580 1 -0.0251622 0.105703 0.170196 0.201923 
3518 2 -0.141466 0.145122 -0.152004 0.253334 
2939 1 -0.0232538 0.122304 -0.0243701 0.126858 
3841 2 -0.194246 -0.0313835 0.0126044 0.197168 
2934 1 -0.0597161 -0.0587297 0.106893 0.135799 
237 1 0.00143521 0.0854365 0.00952739 0.0859781 
233 1 0.133025 -0.0438617 0.218211 0.259299 
78 1 0.108752 0.0448511 0.03196 0.121902 
205 1 -0.0299212 0.121951 0.0655394 0.141643 
694 1 -0.133948 0.220863 0.0654101 0.26646 
861 1 -0.0358228 0.175324 -0.147613 0.231972 
3549 2 -0.0808424 -0.0314623 -0.0280273 0.0911641 
4014 2 0.0669561 -0.0186073 0.0985135 0.120558 
3401 1 -0.00648446 0.199484 -0.0394565 0.203452 
3808 2 0.100024 0.00641689 -0.0645521 0.119218 
614 1 0.0582494 -0.0328938 -0.0956488 0.116721 
3341 1 -0.00361263 0.0549079 -0.0658601 0.0858224 
512 1 0.131172 0.218181 0.0120884 0.254863 
300 1 -0.0188513 0.0889529 -0.0905668 0.128337 
393 1 -0.0208626 0.126346 -0.098074 0.161298 
2740 1 -0.115466 0.138644 0.0476106 0.186604 
221 1 -0.00978669 0.0837763 -0.101892 0.132273 
4006 2 -0.363715 -0.157834 -0.0481082 0.399393 
286 1 -0.0198139 0.0208621 -0.041973 0.0508876 
886 1 0.085389 0.123612 0.0768654 0.168759 
277 1 -0.111237 -0.0294984 -0.1433 0.18379 
364 1 -0.143538 -0.126528 0.186129 0.266939 
1367 1 -0.0332452 0.0453295 0.0397099 0.068825 
411 1 -0.0940949 0.104026 0.0985562 0.171431 
3658 2 -0.00106495 0.129664 0.29927 0.326154 
356 1 0.13664 -0.0745119 0.0529277 0.16439 
626 1 0.0527179 0.00238809 -0.0117296 0.0540598 
357 1 -0.109766 0.0838597 -0.0295057 0.14125 
265 1 -0.161913 0.0469711 -0.0155933 0.169308 
3389 1 -0.0800283 -0.143745 0.106139 0.195787 
362 1 -0.020167 0.110754 0.0752491 0.135409 
478 1 -0.111491 0.184497 -0.096246 0.236078 
4159 2 -0.181769 0.00102607 -0.0221916 0.183121 
2696 1 -0.113548 0.0771361 -0.0582634 0.149123 
966 1 -0.0401893 0.114251 0.0705822 0.140179 
3612 2 -0.0789702 0.00629751 0.0802202 0.112744 
3392 1 -0.157574 -0.0266338 0.0940839 0.185447 
780 1 -0.0811082 0.095134 -0.106497 0.164227 
924 1 0.0781096 0.0727198 0.0394542 0.11378 
2710 1 -0.0351221 0.0862315 0.0624705 0.112125 
3313 1 -0.0465971 0.15676 -0.095866 0.189566 
433 1 -0.0241023 -0.0286814 -0.00138556 0.0374895 
771 1 -0.10028 0.0216079 -0.113607 0.153067 
3333 1 0.00310441 0.0240533 0.0988394 0.101771 
3303 1 -0.013478 -0.0246103 0.110452 0.113961 
3526 2 -0.197206 0.0466391 0.0732497 0.215479 
3249 1 0.0613467 0.075109 0.0416687 0.105551 
92 1 -0.190999 -0.0734476 0.356222 0.410815 
3379 1 0.0275032 -0.0130238 0.0248921 0.0393149 
1449 1 -0.0127672 0.0723766 -0.047294 0.0873962 
903 1 0.184063 0.2183 0.353531 0.454443 
1077 1 -0.0350421 0.0272567 0.0178912 0.0478641 
462 1 -0.0812905 -0.0545899 0.106759 0.144864 
2966 1 0.201154 0.0276463 -0.0702797 0.214864 
3022 1 0.0177619 0.160124 -0.115992 0.198518 
750 1 -0.045137 0.0164174 -0.0380802 0.0612943 
3162 1 -0.0661008 0.201387 0.0171361 0.212649 
449 1 0.0620985 0.166414 -0.172438 0.247557 
3482 2 -0.129078 -0.113378 -0.0722373 0.186371 
287 1 -0.043921 -0.0199979 -0.0630282 0.0793821 
3647 2 0.070098 0.183769 0.0762449 0.210946 
2890 1 -0.110491 0.14881 0.0708132 0.198411 
1285 1 -0.02789 0.123984 0.0941829 0.158178 
943 1 0.0239246 0.0682121 0.112553 0.133767 
3305 1 0.0240619 0.164815 0.0598542 0.17699 
3209 1 0.220411 0.0391614 -0.0792046 0.237461 
4154 2 -0.165454 0.189879 -0.00933336 0.252024 
3257 1 0.169842 -0.113661 -0.0223115 0.205579 
4318 2 -0.204134 0.0138774 0.100566 0.227984 
3883 2 -0.0124148 -0.0310321 0.0703443 0.0778809 
3531 2 -0.0612321 -0.288117 0.0725319 0.303351 
3227 1 -0.00622076 0.0494676 0.0968023 0.108887 
373 1 0.15084 0.034844 0.120103 0.195937 
4297 2 0.068648 0.133276 0.0914398 0.175602 
3404 1 0.07504 -0.0408059 0.106482 0.136509 
398 1 -0.0637443 -0.0586819 0.0744582 0.114241 
2732 1 -0.0173384 -0.100264 0.023677 0.104471 
3221 1 0.105401 0.0586257 -0.0350716 0.125604 
836 1 -0.0456747 -0.134938 0.157337 0.212248 
309 1 -0.0268098 0.115524 -0.0362594 0.124013 
394 1 0.155154 -0.0138645 -0.00265013 0.155795 
412 1 -0.0779269 0.0965005 -0.000739385 0.124038 
1212 1 -0.026421 0.0966159 0.0686222 0.121415 
3573 2 -0.147986 0.0744554 0.00262152 0.165681 
3360 1 -0.132043 0.0652318 -0.10259 0.179486 
3319 1 -0.1456 0.0552625 0.00735104 0.155908 
3588 2 -0.0397388 -0.00206263 0.0833829 0.0923912 
2365 1 -0.08209 0.0687877 -0.0412138 0.114757 
306 1 -0.108234 0.0818123 -0.0682992 0.151897 
3093 1 -0.0978726 0.0235362 -0.0495681 0.112205 
2745 1 -0.0149126 -0.0016572 -0.0297323 0.0333038 
355 1 -0.243474 0.000142383 -0.0357511 0.246085 
3097 1 -0.0138102 0.167542 -0.0603928 0.178629 
3192 1 0.0283276 -0.00953401 -0.0517516 0.0597627 
228 1 -0.157286 -0.0176605 0.128665 0.203974 
3324 1 0.0685091 0.0955332 -0.0608461 0.132372 
951 1 -0.0277383 0.0590327 0.112724 0.130235 
2737 1 -0.0532147 -0.036274 0.0030344 0.0644734 
2959 1 -0.0184018 0.119315 -0.148133 0.191097 
4284 2 -0.00910828 -0.0138292 0.212062 0.212707 
4225 2 0.179351 0.0457228 0.056092 0.193401 
3380 1 -0.0344546 -0.0127243 0.0452203 0.0582572 
3197 1 -0.333014 0.0237944 -0.116683 0.353666 
716 1 0.169927 0.129882 -0.198316 0.291674 
353 1 0.106622 0.0108438 -0.1063 0.150949 
601 1 0.0693536 0.141392 0.0156096 0.158257 
3094 1 0.000724037 0.00955602 -0.0133968 0.0164717 
3617 2 0.072077 -0.0301612 0.108788 0.133939 
206 1 0.0444332 -0.0530831 0.000658515 0.0692283 
71 1 0.126913 0.0248554 -0.00252634 0.129348 
3676 2 -0.0127371 -0.0188078 0.0156107 0.027562 
4123 2 0.065997 -0.0310748 0.115828 0.136885 
4185 2 0.146399 -0.185324 -0.00254513 0.236187 
3483 2 0.0122817 0.086164 -0.00404962 0.0871291 
763 1 -0.000799602 0.0578935 0.113378 0.127306 
3561 2 0.0270405 0.105296 -0.0913273 0.141983 
3409 1 -0.165447 -0.126246 0.0420948 0.212327 
388 1 0.0508354 0.130763 0.178162 0.22677 
1313 1 0.05454 0.0722488 -0.0370877 0.0978263 
444 1 -0.0313763 0.0949165 -0.0433875 0.108977 
3668 2 0.0303892 0.0970644 0.113643 0.152511 
838 1 0.0471307 0.0375734 0.108563 0.124173 
460 1 0.140742 -0.210826 0.122357 0.281473 
499 1 0.00983779 -0.00321743 0.0152975 0.0184701 
3548 2 -0.480994 -0.0683323 -0.0347269 0.487063 
291 1 0.0954839 0.0401256 -0.0609834 0.120192 
482 1 0.113139 0.0494162 0.0655343 0.139775 
1314 1 -0.0236572 0.121822 0.0869079 0.151503 
3672 2 0.0835298 0.114109 0.100073 0.173241 
375 1 0.145577 0.0148487 0.0302012 0.149416 
94 1 0.173152 -0.0218662 0.0252902 0.17635 
3281 1 0.0400233 0.0386021 0.0896532 0.105497 
37 1 0.0220357 0.0733041 0.167055 0.183756 
3321 1 0.00232311 -0.134159 0.0461466 0.141892 
2961 1 0.102422 0.0201335 -0.0285254 0.10821 
3393 1 0.00169766 0.0418043 -0.132319 0.138776 
901 1 -0.121341 -0.108403 -0.125876 0.205717 
4309 2 -0.0155826 -0.1314 0.0222756 0.134183 
392 1 -0.0738129 -0.0971477 0.00989011 0.122408 
436 1 0.0514554 -0.0763331 -0.00925238 0.0925203 
792 1 -0.16037 -0.0121155 0.0434597 0.166596 
3293 1 -0.069622 0.0303713 0.0198997 0.0785215 
3320 1 -0.0617533 -0.259153 0.0496608 0.270998 
3095 1 -0.156778 0.0495404 -0.0520705 0.172468 
318 1 -0.0437325 0.0380546 0.0762946 0.0958204 
3350 1 -0.0658989 -0.151086 0.187141 0.249382 
3314 1 -0.01601 0.0048167 -0.0925131 0.0940117 
2861 1 0.0682635 -0.11872 -0.119256 0.181594 
3180 1 -0.0356424 -0.0711759 -0.0637483 0.101982 
3150 1 -0.0625812 -0.0415013 -0.000661645 0.0750946 
2479 1 -0.0300477 0.012257 0.0232475 0.0399192 
3678 2 0.00734243 0.0611355 0.16764 0.178591 
100 1 0.00154492 0.0310251 -0.134042 0.137595 
389 1 0.18983 -0.153471 -0.0368407 0.246872 
1324 1 -0.0435544 -0.0119616 0.022564 0.0504896 
4116 2 0.0341635 -0.0525714 -0.0445259 0.076899 
468 1 0.119163 0.0567721 0.238721 0.272783 
3664 2 -0.0317976 -0.0609542 0.0486307 0.0842107 
772 1 -0.076484 0.168972 -0.0773186 0.200947 
3290 1 -0.0243819 -0.00379754 -0.0208744 0.0323209 
4271 2 0.0700975 0.174887 0.0949275 0.210975 
1172 1 0.123992 -0.0987758 0.1375 0.20985 
652 1 0.0549384 -0.162683 0.022778 0.173213 
3568 2 0.0587749 -0.0384331 0.112377 0.132515 
3433 1 0.194509 -0.0228391 0.0637399 0.205956 
3419 1 -0.0221377 0.0237104 0.0700157 0.0771651 
248 1 0.108394 -0.0332406 0.0911459 0.145471 
3560 2 0.0994221 -0.145261 0.0283397 0.178294 
1304 1 0.212694 -0.116752 0.101737 0.263098 
3234 1 -0.0215011 0.0897058 -0.116807 0.14884 
917 1 0.0854239 -0.0549272 0.0219065 0.103895 
2969 1 0.250722 -0.077461 0.215426 0.339514 
325 1 0.0881368 0.091351 0.132121 0.183219 
292 1 0.101598 -0.0447775 -0.0459119 0.120146 
3444 1 0.0826344 0.0576794 -0.0814757 0.12959 
908 1 0.153435 -0.150932 -0.0193878 0.216099 
3504 2 0.312288 -0.149063 0.0740323 0.353871 
423 1 0.193301 0.0206788 0.0648418 0.204933 
502 1 0.0823508 0.0291951 0.0938063 0.128194 
3435 1 -0.0420469 -0.000219959 0.0343261 0.0542796 
430 1 -0.0604368 -0.0980397 0.144703 0.184942 
439 1 0.173839 0.0191124 0.0881514 0.195846 
3331 1 -0.0430048 -0.0483783 0.0457735 0.0792785 
4182 2 -0.0954468 -0.127642 -0.0669731 0.172881 
874 1 0.162567 -0.195202 0.214589 0.332536 
980 1 0.0062692 -0.166519 0.187678 0.25098 
810 1 0.204749 0.0962323 -0.0233446 0.227437 
3312 1 -0.0352561 -0.16467 0.122058 0.207984 
3383 1 -0.0248288 0.175726 -0.0692251 0.190494 
225 1 0.0869219 -0.140513 0.122721 0.205815 
4280 2 0.199919 0.214162 -0.0629946 0.299669 
416 1 0.0871865 -0.173824 0.174785 0.261469 
365 1 0.142124 0.000393205 0.129526 0.192292 
3799 2 0.0993179 -0.119854 -0.151003 0.216866 
2819 1 0.0645594 -0.109813 0.131052 0.182761 
382 1 -0.0820657 0.0212264 -0.112234 0.140648 
404 1 0.0151175 -0.0501306 -0.00892813 0.0531162 
2776 1 0.0752405 0.0622347 0.0596364 0.114415 
2973 1 -0.19241 -0.0677133 0.063789 0.213718 
957 1 -0.0429424 0.0721843 -0.192752 0.210257 
795 1 0.0575719 0.00813983 0.0865056 0.10423 
490 1 -0.0318421 -0.129035 -0.21227 0.250444 
3266 1 -0.00155401 0.00276309 0.0616451 0.0617265 
4285 2 0.0523043 0.0163129 0.0098382 0.0556654 
496 1 -0.0122286 0.14076 -0.00341549 0.141332 
2993 1 -0.0558931 -0.0226833 -0.0346155 0.0695471 
4256 2 -0.130403 -0.214905 0.0806007 0.26398 
471 1 -0.0398257 -0.0243637 0.0951936 0.106026 
517 1 0.117202 0.0893883 0.0943206 0.174994 
279 1 -0.095493 0.415607 0.0272939 0.427309 
4264 2 0.154115 -0.0976402 0.118295 0.217437 
4098 2 -0.080178 0.0328903 0.058311 0.104453 
4028 2 -0.0263259 -0.146882 0.167249 0.224142 
183 1 -0.31331 -0.0294233 -0.177516 0.361304 
3322 1 0.135345 0.00232009 0.0606928 0.148349 
3863 2 -0.117177 -0.0494843 0.0512547 0.137136 
274 1 0.138678 -0.0116184 -0.0374949 0.144127 
1091 1 0.0708155 0.0434898 0.0962211 0.12714 
3396 1 0.126197 -0.0459198 0.108204 0.17246 
699 1 0.049547 0.085948 -0.00122988 0.0992143 
329 1 -0.135263 0.0878362 -0.193717 0.252066 
2545 1 -0.0666998 -0.010951 -0.114512 0.132973 
3327 1 -0.0871869 0.154425 -0.0900966 0.198912 
3674 2 -0.107044 -0.00291945 0.234886 0.258144 
1418 1 0.0417205 -0.0562083 -0.133684 0.150902 
443 1 -0.188956 -0.0602315 -0.102478 0.223236 
855 1 -0.00825677 -0.0712466 -0.130791 0.149166 
3082 1 0.103039 0.0553251 0.0514137 0.127754 
3476 2 0.0181854 0.0166029 -0.024092 0.0344498 
2869 1 -0.123358 0.0231589 0.0228666 0.127579 
4307 2 0.125296 0.171704 0.028824 0.214505 
177 1 0.0516892 0.0707759 -0.00813543 0.0880181 
363 1 0.0845702 -0.178226 -0.0706635 0.209547 
1450 1 0.140098 0.0424517 -0.00649925 0.146532 
3559 2 0.0457793 0.205009 0.127848 0.245905 
347 1 0.0790746 0.102791 0.0327691 0.133763 
4237 2 0.0654352 -0.21675 -0.0242574 0.227707 
319 1 -0.0519221 -0.0316578 -0.119056 0.133688 
830 1 -0.103846 0.0678149 0.00915522 0.124365 
295 1 0.026375 -0.111078 -0.0620065 0.129918 
937 1 -0.0264603 -0.0135062 0.00696658 0.0305139 
268 1 0.0615758 0.0996142 0.128989 0.17422 
854 1 0.114537 0.135795 -0.0505153 0.184691 
442 1 -0.18879 0.0839624 -0.0488254 0.212309 
875 1 0.0860502 0.0236486 0.143136 0.168677 
501 1 0.216322 -0.00986449 0.217231 0.306727 
3378 1 -0.0640577 0.105606 0.0207307 0.125243 
3291 1 0.227191 0.00470778 -0.134602 0.264113 
314 1 -0.0973646 -0.0309602 0.0764951 0.127632 
474 1 -0.086965 0.121221 -0.246999 0.288558 
3070 1 0.0839775 0.136666 -0.149785 0.219466 
964 1 -0.168695 0.0899374 -0.0847231 0.209104 
793 1 -0.184551 -0.0911694 -0.062533 0.215131 
3397 1 -0.168312 0.0295676 -0.063231 0.182212 
899 1 -0.0117029 0.0432088 0.0758555 0.0880796 
1337 1 0.0154442 0.0139749 0.0168044 0.0267621 
3278 1 -0.1237 -0.224686 0.0122853 0.256781 
3544 2 0.117062 0.0960123 0.109432 0.186808 
1430 1 -0.135267 -0.0483183 0.19471 0.241958 
3200 1 -0.0268933 0.0886655 0.0904529 0.129486 
757 1 -0.139358 -0.0630151 0.0824461 0.17375 
822 1 -0.265104 -0.207216 0.251132 0.419864 
819 1 -0.0416116 0.105486 0.044449 0.121798 
107 1 -0.0607306 -0.125446 0.037877 0.144428 
275 1 0.129759 0.068362 -0.0381034 0.151534 
3240 1 -0.215149 -0.131803 -0.0307904 0.254183 
113 1 0.108049 0.0763763 -0.0867883 0.15824 
504 1 -0.00941843 -0.0353656 0.0384308 0.0530694 
2795 1 -0.0677062 -0.111459 0.0548738 0.141486 
781 1 -0.0503556 -0.0785008 0.111309 0.145216 
581 1 0.0198919 0.032798 0.0253496 0.0459782 
3541 2 -0.0381627 0.0194067 -0.0684927 0.0807729 
786 1 0.136192 0.0704828 -0.164893 0.225179 
800 1 0.0632938 -0.249522 -0.102504 0.277081 
367 1 0.0625306 -0.0603605 0.00870586 0.0873456 
2687 1 0.047586 0.0162991 -0.179509 0.186423 
3545 2 0.0247164 -0.0176179 -0.293766 0.29533 
491 1 0.116594 -0.139146 -0.0857788 0.200782 
840 1 -0.169164 0.0509493 -0.0367098 0.180444 
3434 1 -0.0409848 -0.0779743 0.0592731 0.106175 
2814 1 -0.0386885 0.149181 -0.0884749 0.177706 
1723 1 0.0185599 -0.020827 -0.197531 0.199491 
3264 1 0.165469 -0.0545504 0.0234795 0.175804 
440 1 -0.01617 0.097127 0.145744 0.175887 
431 1 0.00941395 -0.0189224 0.0878499 0.0903565 
402 1 0.000181296 -0.216207 0.259474 0.337745 
968 1 0.160362 -0.0379955 0.174262 0.239848 
801 1 -0.0980178 -0.333142 0.0516581 0.351084 
2656 1 0.11322 0.188934 0.0936773 0.239354 
421 1 -0.124218 -0.109829 -0.0831332 0.185482 
4152 2 -0.314697 0.234264 0.0921221 0.402989 
461 1 -0.101031 0.269186 -0.0196117 0.288189 
647 1 -0.027926 0.153527 0.119152 0.196335 
3436 1 -0.109225 -0.0130119 0.0164636 0.111222 
3371 1 -0.0322748 0.0758928 -0.0862925 0.119364 
486 1 -0.105761 0.11807 -0.00558206 0.15861 
308 1 -0.0681934 -0.0807484 -0.171085 0.201099 
307 1 -0.04209 0.000695877 0.0102678 0.0433299 
85 1 0.189521 -0.00431084 0.0601973 0.198898 
4143 2 -0.379719 -0.132512 0.274647 0.487008 
2873 1 -0.119772 -0.0687127 0.185155 0.230975 
2884 1 -0.139688 0.0172748 2.88179e-05 0.140753 
3339 1 -0.11274 0.137806 0.136464 0.224328 
3535 2 0.0872295 0.0628886 0.0248628 0.110373 
825 1 0.0733678 -0.173691 0.144245 0.237399 
1354 1 -0.125093 -0.0577612 0.2123 0.253092 
128 1 0.0399039 -0.0763055 0.0532412 0.10124 
907 1 0.00888093 0.0415817 0.03562 0.055468 
1641 1 0.0790952 0.0635646 -0.000770727 0.101475 
885 1 -0.0644861 -0.040168 -0.353515 0.361587 
1300 1 0.0580878 -0.014928 0.0725166 0.0941047 
1934 1 -0.00895405 -0.0552481 0.00359305 0.0560842 
891 1 -0.172159 0.0150581 0.0791104 0.190063 
3778 2 -0.023257 0.0414811 -0.0901802 0.101951 
1269 1 -0.16552 -0.270209 0.0578493 0.322112 
1535 1 0.0190723 -0.118418 0.0519492 0.13071 
573 1 -0.0928463 -0.0196698 0.0770221 0.122228 
3844 2 -0.0719469 -0.037284 -0.176556 0.194264 
631 1 0.103 0.0658477 -0.0417921 0.129196 
606 1 0.0164065 0.00459641 0.212542 0.213224 
3600 2 -0.0479065 0.0354101 0.0901394 0.108046 
627 1 -0.12385 0.0195088 -0.0560802 0.137348 
1474 1 -0.0929838 -0.0183987 0.219589 0.239174 
1569 1 -0.181856 -0.290456 -0.0418603 0.345237 
63 1 -0.00799541 -0.0436665 0.0762911 0.0882668 
577 1 -0.180528 -0.0697667 0.2618 0.325572 
565 1 -0.0672089 -0.0956973 0.124609 0.170888 
3616 2 -0.0837682 -0.0384762 0.08984 0.12872 
3418 1 -0.0332108 -0.0404043 0.00133587 0.0523188 
4176 2 -0.0604197 -0.0296424 0.124918 0.141893 
2057 1 -0.00651417 -0.0249196 0.034359 0.0429414 
69 1 -0.176062 -0.081376 0.229148 0.300215 
865 1 0.125736 0.0473223 -0.0847373 0.158837 
4319 2 0.131511 -0.0044133 0.0694082 0.148768 