ITEM: TIMESTEP
4000
ITEM: NUMBER OF ATOMS
4320
ITEM: BOX BOUNDS pp pp pp
0.0000000000000000e+00 1.9309999999999999e+01
0.0000000000000000e+00 1.9309999999999999e+01
0.0000000000000000e+00 9.6549999999999994e+00
ITEM: ATOMS id type c_displacement[1] c_displacement[2] c_displacement[3] c_displacement[4] 
3196 1 -0.13021 0.212759 -0.0745059 0.260331 
381 1 -0.171645 -0.0340624 0.0720058 0.189227 
327 1 -0.112527 0.194608 0.0755221 0.237146 
484 1 -0.111528 0.232701 -0.0539035 0.263617 
728 1 -0.125022 0.091529 0.154384 0.21873 
817 1 0.21823 -0.0844492 0.104619 0.256322 
3679 2 -0.285144 0.233165 0.121951 0.388001 
3586 2 -0.047871 -0.179235 0.154129 0.24119 
2945 1 0.029408 0.191982 0.124035 0.230449 
3230 1 0.0832467 -0.164514 0.0545267 0.192271 
3651 2 0.220169 0.192657 -0.0105066 0.292749 
66 1 -0.0210249 0.15723 -0.202786 0.25746 
400 1 0.0407338 0.076027 -0.0608674 0.105566 
677 1 -0.00136327 0.0676074 -0.0475413 0.0826607 
4053 2 -0.0359323 0.117959 0.0684161 0.141018 
2478 1 0.00892855 0.248638 -0.0180812 0.249454 
727 1 0.289284 -0.267545 -0.0275077 0.394997 
87 1 0.044229 0.118859 -0.04131 0.13338 
623 1 0.0561142 -0.0601654 -0.055302 0.0991312 
688 1 0.054156 0.107382 0.0858871 0.147785 
58 1 -0.0780474 -0.118368 -0.0457546 0.148983 
3514 2 -0.0666023 0.00058994 -0.210561 0.220844 
7 1 0.00576689 -0.0170599 -0.138664 0.139829 
110 1 -0.0617576 -0.0696266 -0.0838022 0.125238 
3618 2 -0.122936 -0.0635636 0.130455 0.19019 
18 1 0.0339957 0.0972407 0.0925507 0.138481 
298 1 -0.100484 -0.140256 -0.0982804 0.198564 
190 1 -0.0771595 0.148937 -0.15711 0.229825 
180 1 0.0902499 -0.00587821 0.120494 0.15066 
106 1 -0.136298 -0.0235013 -0.0770809 0.158338 
217 1 0.0435501 -0.00587875 -0.0617347 0.0757782 
775 1 0.0393079 0.107401 -0.1492 0.187992 
3627 2 0.175529 0.21629 -0.0623471 0.285445 
608 1 0.0485346 -0.0335335 0.0519539 0.0786086 
255 1 0.0996772 -0.00631461 -0.0434949 0.108937 
657 1 -0.303162 -0.174867 0.0229579 0.350731 
3118 1 0.0304752 0.133561 -0.103792 0.171872 
562 1 -0.0424858 -0.128456 -0.0201479 0.136791 
70 1 0.0856335 0.139218 -0.0744056 0.179585 
121 1 0.0209977 0.000151878 -0.0462876 0.0508279 
1118 1 -0.0557764 -0.190935 -0.0891972 0.217999 
210 1 0.100234 -0.0293961 -0.0196814 0.106293 
4214 2 0.376562 -0.171593 0.0356779 0.41535 
65 1 -0.026213 0.00814112 0.0277005 0.0389964 
232 1 -0.17552 0.00990496 -0.0190153 0.176825 
3712 2 0.0895672 0.0477278 -0.121811 0.15855 
226 1 0.40341 -0.0627023 0.0802858 0.416073 
532 1 0.0387448 0.0539357 0.11867 0.135988 
3578 2 0.00156928 -0.0800104 -0.0302643 0.0855573 
473 1 7.18825e-05 0.117036 -0.0301978 0.120869 
246 1 0.0293138 -0.114533 -0.0756508 0.140357 
155 1 -0.185524 0.0940324 -0.0478539 0.213427 
4071 2 0.259303 0.245476 0.410079 0.543748 
2838 1 -0.228458 0.0652189 0.00692572 0.237686 
536 1 -0.0437789 0.082724 -0.0609655 0.111699 
894 1 -0.0940788 0.0192915 -0.127645 0.159738 
289 1 -0.0135567 -0.1181 0.205013 0.236985 
351 1 0.29676 0.342744 -0.144261 0.475763 
3135 1 -0.0140285 0.214382 -0.1383 0.255506 
303 1 0.0490119 -0.267132 -0.10372 0.290722 
1415 1 0.0777409 0.206441 0.00731296 0.220715 
527 1 -0.257703 -0.0205406 -0.00459679 0.258562 
3002 1 -0.0914411 0.115013 -0.0233121 0.148772 
3189 1 0.225809 0.0690736 0.113396 0.261953 
712 1 -0.0135874 -0.0476721 0.0884312 0.101377 
718 1 -0.00335537 0.0592771 0.149384 0.16075 
3469 2 -0.0830505 0.00997582 -0.0924371 0.124666 
737 1 0.0996608 0.345634 -0.173865 0.39953 
4177 2 0.167023 -0.410621 0.0410812 0.44519 
93 1 -0.0801712 0.152007 0.140461 0.221952 
569 1 -0.00559819 0.0854959 -0.0571435 0.102987 
639 1 -0.172379 0.06755 0.10272 0.211728 
21 1 -0.0972134 -0.084702 0.0928136 0.158869 
3353 1 -0.210504 -0.262509 -0.143048 0.36563 
96 1 0.110403 0.228983 -0.0613532 0.261508 
823 1 0.0244117 0.0203209 0.0459655 0.0558722 
2596 1 0.105913 0.0175678 0.127735 0.166861 
50 1 -0.11346 -0.221903 -0.0933439 0.266134 
2495 1 0.0225602 0.00910968 0.0884999 0.0917833 
28 1 0.0365458 0.0109955 0.0974557 0.104662 
3055 1 0.102256 -0.0635325 0.176321 0.213499 
12 1 0.0459707 0.0147595 0.026685 0.0551655 
4170 2 0.116205 0.37192 -0.0854779 0.398917 
738 1 0.0213687 -0.076299 -0.0599657 0.0993683 
2453 1 0.0743023 0.0465689 0.105458 0.137153 
3167 1 0.0277043 0.000735659 0.0750428 0.0799968 
339 1 0.0519985 0.207287 -0.0613269 0.222335 
988 1 0.0146558 0.0453239 -0.195617 0.201333 
594 1 0.144078 -0.0555907 -0.0306741 0.157448 
3808 2 0.188752 -0.0431104 0.12507 0.230496 
390 1 0.147217 0.0508949 0.0367974 0.160054 
203 1 0.0303623 -0.0122026 -0.049292 0.0591647 
3582 2 -0.0242933 0.209664 -0.108512 0.237327 
3632 2 0.21166 0.131663 -0.127595 0.280028 
231 1 0.188171 0.0409025 -0.0144936 0.193109 
323 1 0.0449274 0.095175 -0.10166 0.146327 
3244 1 0.125083 0.0193829 -0.0887986 0.154618 
118 1 0.101761 -0.0927997 -0.00394426 0.137778 
2960 1 -0.213122 -0.0834711 -0.13339 0.264917 
553 1 -0.161519 0.183338 -0.493614 0.550778 
2735 1 -0.0379173 -0.0228022 -0.00764408 0.0449009 
2768 1 0.113627 0.324139 -0.183162 0.389263 
29 1 0.0508405 0.163131 -0.174212 0.244021 
753 1 -0.0475776 -0.163035 0.0895796 0.192011 
3467 2 -0.238127 0.184449 0.13379 0.329584 
3251 1 -0.0116516 0.0617122 -0.346703 0.352345 
3916 2 -0.36776 -0.135389 0.000736759 0.39189 
4228 2 0.25026 0.116603 -0.316934 0.420325 
4187 2 -0.105201 -0.15351 -0.392876 0.434723 
437 1 0.0949438 0.127968 -0.242339 0.290032 
53 1 0.161749 0.0699672 -0.280921 0.331624 
593 1 -0.0216958 0.124494 0.0601748 0.139966 
609 1 0.128313 0.0940611 -0.280218 0.322233 
3040 1 -0.00419219 0.0781449 -0.192097 0.207426 
546 1 -0.124418 0.165324 0.0976323 0.228788 
167 1 -0.062656 0.102048 0.212059 0.243534 
725 1 -0.00858117 0.0477735 -0.0268837 0.0554858 
610 1 0.0895505 -0.0690692 0.0867569 0.142536 
89 1 0.0350106 -0.0356652 -0.00266865 0.0500487 
3149 1 -0.0357437 -0.155048 0.0823429 0.179159 
550 1 0.000847464 0.0268922 0.0443341 0.0518596 
147 1 0.0259528 -0.0407227 0.116587 0.126192 
247 1 -0.0192504 -0.0430228 0.135445 0.143412 
233 1 0.194476 0.111923 0.155857 0.273201 
3554 2 -0.148039 -0.00250041 0.00611437 0.148186 
3786 2 -0.0377932 0.0708697 -0.00071793 0.0803203 
5 1 0.00515836 0.0534739 0.124264 0.135379 
2591 1 -0.103093 0.122654 0.0817679 0.179884 
3232 1 0.132682 0.135425 0.20529 0.279443 
1215 1 -0.036751 -0.103858 -0.00863277 0.110507 
859 1 0.143243 0.0588562 0.102055 0.185467 
3152 1 -0.0888997 -0.122714 0.123315 0.195367 
2936 1 0.0625672 0.19797 0.00863997 0.207802 
1454 1 0.00743751 -0.0429951 0.0962116 0.105644 
3730 2 0.156264 -0.203845 -0.137584 0.291377 
59 1 -0.0168509 -0.138005 0.129316 0.189873 
43 1 0.0780082 -0.056124 -0.145412 0.174298 
3841 2 0.0438573 0.0682763 -0.172627 0.190749 
23 1 0.0618805 0.0485741 -0.181735 0.198031 
3743 2 -0.0642113 0.131642 -0.0330701 0.150154 
3023 1 0.168662 0.304299 -0.147576 0.37792 
151 1 0.109887 -0.117904 -0.0215164 0.162602 
103 1 0.00769776 0.0830177 -0.26717 0.279876 
3006 1 0.104686 -0.0445872 -0.000218939 0.113785 
3199 1 0.146407 0.0793563 -0.195436 0.256763 
3346 1 0.0762163 0.130467 -0.167749 0.225766 
3478 2 0.0578684 0.150718 0.0357211 0.16535 
3611 2 -0.0729723 0.0909364 -0.0492701 0.126578 
424 1 0.0994323 0.0860123 -0.0891517 0.158849 
4289 2 0.0819985 0.00322289 0.0107679 0.0827653 
3460 2 0.0451148 0.0933874 0.0337411 0.109064 
2461 1 -0.148102 0.163126 -0.144864 0.263685 
78 1 0.150731 -0.0184112 -0.0501585 0.159921 
2500 1 0.0246558 -0.0337389 -0.0190565 0.0459279 
3188 1 0.105564 0.227638 -0.0421088 0.254433 
2931 1 -0.0741807 -0.0787432 0.0832415 0.136501 
529 1 -0.360528 -0.34711 -0.257695 0.562914 
825 1 0.147298 0.0330197 0.0536599 0.160207 
691 1 -0.345711 -0.533064 -0.179331 0.660177 
3464 2 -0.157735 -0.755651 -0.167689 0.789943 
140 1 -0.340272 -0.197752 0.173067 0.429934 
3493 2 0.193939 0.184793 0.022172 0.268798 
3491 2 -0.44873 0.440837 -0.458791 0.778579 
1480 1 -0.159901 -0.263722 0.233885 0.387066 
2968 1 0.3695 -0.264272 0.0360417 0.455707 
98 1 0.290783 -0.19597 0.0744793 0.358478 
40 1 0.070816 -0.0709134 0.0967996 0.139333 
216 1 0.0254197 -0.0369716 -0.0120906 0.0464676 
133 1 0.120547 0.0294149 -0.0223655 0.126084 
1133 1 0.246926 0.0317943 0.0596944 0.256021 
1331 1 -0.230167 -0.112084 0.197563 0.323374 
3634 2 -0.119433 0.40056 0.305915 0.517974 
1130 1 0.0250825 -0.0435608 0.021505 0.054673 
3041 1 0.0132444 -0.247291 -0.157724 0.293608 
604 1 -0.0168483 -0.0154085 0.0289003 0.0368309 
721 1 -0.257656 -0.0832719 -0.240687 0.362286 
3164 1 0.0860786 0.117511 -0.00797629 0.145883 
2994 1 -0.0461796 -0.122923 0.148546 0.198264 
75 1 0.177535 0.127632 0.122503 0.25063 
64 1 -0.0944295 -0.122634 -0.156764 0.220297 
193 1 0.00679299 0.11059 0.0162617 0.111985 
44 1 -0.0220731 -0.14455 0.027041 0.148705 
2996 1 0.0519982 0.0305942 -0.0950367 0.112569 
4212 2 0.00239816 0.144401 -0.0594498 0.156178 
3279 1 -0.0316885 0.0357378 0.0461874 0.0664427 
178 1 -0.0154561 -0.0846445 -0.168329 0.189045 
257 1 -0.0249765 0.0521413 -0.126627 0.139201 
3010 1 -0.00300215 0.29206 -0.0509476 0.296485 
2981 1 -0.0590493 -0.108444 -0.0880971 0.151684 
330 1 -0.0580671 0.205629 0.110391 0.240502 
949 1 -0.0241341 0.132587 0.0320601 0.138527 
600 1 -0.00499866 -0.0719914 -0.129904 0.148602 
338 1 0.0198284 -0.0699535 -0.125643 0.145165 
4101 2 0.0363693 -0.0568847 0.101 0.121489 
3608 2 0.0750046 0.162117 0.0676077 0.190993 
4217 2 0.0751892 -0.0699959 -0.0164198 0.104031 
479 1 0.0257752 0.00857872 -0.0150641 0.0310626 
3335 1 0.0896538 -0.066529 -0.0420734 0.119307 
1457 1 0.0760584 -0.0671614 -0.104883 0.145931 
3037 1 0.0166373 0.116918 -0.0920089 0.149707 
4253 2 0.278609 -0.02264 -0.181003 0.333013 
387 1 0.150155 -0.0969035 -0.0564756 0.18742 
3736 2 0.0528916 -0.0478502 0.0282041 0.0766983 
717 1 -0.0390604 -0.191226 0.237869 0.307692 
174 1 0.000932916 -0.155594 0.0552947 0.165129 
508 1 -0.0527933 -0.234188 0.0718809 0.250595 
3537 2 0.121869 -0.137497 -0.0189195 0.184704 
747 1 -0.0690068 0.0530574 0.0499861 0.100377 
497 1 -0.029216 -0.0131673 -0.013674 0.0348415 
958 1 -0.0505231 -0.319372 0.081516 0.333461 
3130 1 -0.0258011 -0.106963 -0.0541088 0.122615 
4163 2 -0.0863709 -0.10524 0.179297 0.225128 
3394 1 -0.0732033 -0.169631 -0.018337 0.18566 
4204 2 -0.0926378 -0.0269136 0.0175065 0.0980437 
86 1 0.301328 -0.0569644 -0.0212009 0.307397 
759 1 0.102125 -0.0844951 -0.16961 0.215259 
3411 1 -0.0822288 0.0180342 0.204233 0.220903 
835 1 -0.0344295 0.201332 -0.0514941 0.210646 
3057 1 0.0196202 -0.0296429 0.0126808 0.037742 
3620 2 -0.0259395 -0.0188482 -0.0579587 0.0662369 
3830 2 -0.297982 -0.207887 0.197188 0.413393 
241 1 -0.1919 0.0450433 0.0384508 0.200831 
704 1 0.126092 0.240236 -0.0906536 0.286061 
3599 2 -0.215742 0.1739 -0.0598674 0.283496 
157 1 0.0852631 0.158981 0.100308 0.206413 
54 1 0.0788055 -0.0733572 -0.0975111 0.145258 
493 1 0.0218022 0.306258 -0.0534833 0.311656 
204 1 0.00855069 0.126102 -0.121177 0.175096 
254 1 0.0583968 0.190482 -0.190105 0.275379 
67 1 0.131123 0.0936639 -0.031152 0.164124 
2988 1 -0.0356645 0.247616 -0.135778 0.284642 
3030 1 -0.234058 0.243014 -0.0409181 0.339873 
4050 2 0.338471 0.162128 -0.144699 0.402226 
540 1 -0.04951 0.247216 -0.197238 0.320109 
3007 1 0.0199301 -0.0446337 -0.0941409 0.106075 
3479 2 0.0106666 0.520723 0.00156322 0.520834 
3216 1 -0.00819074 0.0483139 -0.106253 0.117009 
234 1 0.117182 -0.0518169 0.0276246 0.131071 
1036 1 0.197288 -0.0692147 -0.121543 0.241839 
3369 1 -0.0057884 -0.00622011 0.0310113 0.0321542 
3607 2 0.0213905 -0.105321 -0.0197808 0.109276 
3139 1 0.00714599 0.0221374 -0.211088 0.212366 
644 1 -0.181445 0.033374 0.0720149 0.198047 
1278 1 0.12048 -0.0518591 -0.00305877 0.131202 
4269 2 0.0084949 0.00522654 -0.0135976 0.0168634 
563 1 0.059486 0.102472 0.039652 0.124946 
214 1 0.0357446 0.0214413 -0.0118389 0.0433309 
640 1 0.129118 0.0462927 -0.0219022 0.138904 
199 1 0.0968995 -0.00978298 0.0576717 0.113187 
245 1 0.0408783 -0.0550007 0.216799 0.227371 
2758 1 0.0339192 0.00409644 -0.0629811 0.0716513 
3056 1 0.108744 -0.0412377 -0.0376505 0.122243 
3468 2 -0.0180395 0.118763 0.0162454 0.121219 
4089 2 0.191388 0.0253884 -0.0500555 0.199448 
2684 1 -0.0412001 0.0899311 -0.0730837 0.122989 
249 1 0.161244 -0.117141 0.0588352 0.207806 
3096 1 0.122893 0.0607762 0.17662 0.223587 
240 1 0.117416 0.0940303 -0.0652918 0.163986 
181 1 0.0134923 -0.0137763 0.106544 0.108275 
46 1 0.0441327 -0.215735 0.0840015 0.235681 
3211 1 0.179372 -0.0226941 0.0667206 0.19272 
3603 2 0.0363982 -0.32526 0.20027 0.383702 
2939 1 -0.0587505 0.186443 -0.0757696 0.209651 
1102 1 0.06029 0.279612 -0.0980056 0.302362 
3701 2 0.367819 0.107196 -0.0238392 0.383862 
3513 2 0.125789 -0.0523822 -0.154458 0.20597 
312 1 0.25286 -0.0811629 -0.280959 0.386605 
587 1 0.141613 0.0707046 -0.0406311 0.163414 
135 1 -0.00358815 -0.142686 -0.197861 0.243969 
3512 2 -0.0454364 0.0817272 -0.0939559 0.132558 
1179 1 0.121545 0.049534 -0.0753546 0.151344 
559 1 0.0592236 0.145885 -0.0951241 0.183952 
134 1 0.00428988 0.280447 -0.0740627 0.290094 
195 1 0.0660797 0.162995 -0.0380772 0.179955 
2995 1 0.0422579 -0.035499 -0.183547 0.191664 
3003 1 -0.121103 0.126493 0.0528871 0.18293 
191 1 0.0904518 0.174788 0.0547499 0.204279 
685 1 0.0226182 -0.0450625 -0.165592 0.173098 
602 1 -0.109679 -0.0439486 0.104614 0.157813 
3092 1 -0.0232666 0.0656784 -0.062314 0.0934774 
4195 2 -0.0209704 0.0267676 -0.152702 0.156442 
674 1 0.0872598 0.042931 -0.0640905 0.116469 
2004 1 -0.0835031 0.0953023 0.00614811 0.126859 
182 1 0.0999783 -0.203185 -0.191086 0.2963 
427 1 0.0240419 0.0828689 -0.0793587 0.117231 
4173 2 0.176753 -0.115581 0.0338473 0.213884 
2950 1 0.0169249 0.0826377 -0.131703 0.156401 
6 1 -0.00601255 0.257438 -0.0667751 0.266025 
902 1 0.115962 0.0278766 0.0414363 0.126259 
920 1 -0.0725656 0.0294257 -0.0729745 0.107037 
215 1 0.0336185 0.15399 -0.0114491 0.158032 
3115 1 -0.0811063 0.105612 0.0699759 0.150428 
690 1 0.0450275 0.137401 0.031118 0.147901 
742 1 0.133458 0.0293647 -0.000826568 0.136653 
154 1 -0.021062 -0.0230729 -0.198455 0.200898 
2926 1 -0.164254 -0.0286707 0.0668572 0.179642 
710 1 -0.0623038 0.0365597 -0.174999 0.189322 
580 1 -0.0481811 -0.0199405 0.321699 0.325897 
80 1 -0.194514 0.0732179 0.00290904 0.207858 
95 1 -0.0664713 0.0089181 0.0505033 0.0839557 
2977 1 0.0110595 0.0353254 -0.0202548 0.0421954 
3408 1 -0.126767 0.047111 0.162526 0.211434 
3518 2 -0.236727 0.222462 -0.0268904 0.325964 
446 1 -0.0116875 -0.0560202 0.100027 0.11524 
354 1 0.170509 0.070261 0.138214 0.230463 
205 1 -0.202789 0.13944 0.101926 0.266375 
694 1 -0.143203 0.141994 0.211428 0.292183 
861 1 -0.050377 -0.012337 0.0268582 0.0584072 
3549 2 -0.0977366 0.0327985 -0.0578616 0.118221 
3401 1 -0.00688754 0.092547 0.169979 0.193663 
1077 1 0.146447 0.0786422 0.036059 0.170093 
3234 1 -0.150808 -0.0571688 0.0100651 0.161594 
4014 2 -0.116443 -0.0133713 0.103573 0.156413 
3393 1 0.123903 0.0597199 0.0115912 0.138031 
221 1 0.0863638 0.135055 -0.0199912 0.16155 
512 1 0.0609253 0.0982801 0.0707804 0.135576 
300 1 -0.0152683 0.0902169 0.116315 0.147991 
393 1 0.0737206 -0.0473263 0.111704 0.141959 
2740 1 0.0584421 0.202305 0.0264435 0.212231 
286 1 -0.0759013 0.0213439 0.0308451 0.084664 
3197 1 -0.0479897 0.0172842 -0.00239901 0.0510638 
3341 1 -0.101005 0.172102 0.00912123 0.19976 
772 1 -0.0445574 0.00258005 -0.016651 0.0476369 
483 1 0.0044228 -0.0891724 0.135081 0.16192 
4006 2 0.0511033 0.359644 -0.0637261 0.368804 
277 1 -0.33753 -0.183946 0.0483531 0.387428 
364 1 -0.222459 0.0806065 -0.220742 0.323593 
1367 1 -0.02995 -0.00276688 -0.00244953 0.0301771 
411 1 -0.104464 0.122494 -0.120533 0.201112 
356 1 -0.0105366 0.0850915 -0.0346175 0.092466 
3404 1 0.148548 -0.19937 -0.089308 0.264179 
635 1 -0.124586 -0.0348377 -0.0765193 0.150301 
3389 1 -0.0323963 0.0722454 0.0164473 0.0808668 
357 1 -0.137094 0.117979 -0.0342525 0.184084 
265 1 -0.0444628 -0.0448178 0.167987 0.179458 
362 1 0.0153512 0.0829467 -0.0338817 0.0909053 
478 1 0.068126 0.157647 -0.118843 0.208848 
4159 2 -0.104074 -0.158916 0.0826403 0.207159 
2696 1 0.0304715 0.0365561 -0.103356 0.113786 
3612 2 0.0421702 0.192188 0.0540034 0.204036 
966 1 0.0106208 0.027911 -0.0201189 0.0360083 
924 1 -0.0544047 0.128399 -0.0514192 0.148627 
3482 2 -0.227191 -0.202737 0.045278 0.307844 
780 1 -0.0255264 0.0594619 -0.172893 0.184606 
2710 1 -0.171734 0.0363528 -0.0515289 0.182946 
3313 1 -0.125407 -0.000877169 -0.0637129 0.140667 
3333 1 -0.0761379 -0.0610605 0.174312 0.199775 
3290 1 -0.127882 0.111695 -0.125221 0.210974 
2873 1 0.165206 0.00443442 0.261328 0.309201 
3526 2 -0.170601 -0.356421 -0.0196473 0.395635 
903 1 -0.0934223 0.133622 -0.0351067 0.166778 
3303 1 0.113928 0.251593 0.321348 0.423725 
3249 1 -0.0905309 0.0906848 -0.197074 0.23507 
92 1 -0.031706 -0.16858 0.176183 0.245896 
3379 1 -0.108369 0.0435675 0.0590807 0.130891 
1449 1 -0.0393015 0.0441046 -0.0555725 0.0811056 
3162 1 0.0850996 0.0960641 0.0516511 0.138341 
462 1 -0.156285 -0.090651 0.15573 0.238526 
2966 1 0.222582 0.0768494 -0.115059 0.262082 
3022 1 0.114553 0.109147 -0.0688975 0.172576 
750 1 0.0420998 0.0435751 -0.0649008 0.0887879 
449 1 0.141464 0.00464093 -0.129104 0.191576 
601 1 0.0977748 0.171377 -0.100957 0.221636 
100 1 0.036965 -0.0429084 -0.060856 0.0831324 
886 1 -0.0155561 0.0633497 0.175765 0.18748 
287 1 -0.00851293 -0.0958047 -0.0342024 0.102082 
3647 2 -0.192127 0.0810897 -0.100541 0.23151 
2890 1 -0.0707 0.171079 -0.121299 0.221314 
1285 1 -0.024217 0.283887 0.20102 0.348694 
3305 1 0.0676273 0.212035 0.0436465 0.226798 
3209 1 -0.0223854 -0.0810357 -0.220487 0.235971 
4318 2 -0.0642699 -0.0325146 0.0564091 0.0914866 
3409 1 -0.0122848 -0.113626 -0.0364009 0.119945 
943 1 -0.000519003 0.0283123 0.00641474 0.0290345 
3658 2 0.0294364 0.39642 0.237777 0.463199 
3883 2 0.0226461 0.0769066 0.0299883 0.0855966 
3227 1 0.0193694 -0.0178777 0.0701418 0.074931 
373 1 0.0817638 0.0251695 0.0346019 0.0922827 
4297 2 -0.0967478 0.0168808 0.172477 0.198478 
398 1 -0.149295 -0.121994 -0.0392585 0.196756 
3531 2 -0.107145 -0.235739 0.125014 0.287544 
3221 1 0.0245529 0.055242 -0.119622 0.13403 
309 1 0.0527 0.0724706 -0.0551272 0.105206 
836 1 -0.112494 -0.211824 0.0377066 0.242788 
394 1 -0.00285686 -0.0284545 -0.0434633 0.0520277 
412 1 -0.124455 0.0678065 -0.105176 0.17649 
3573 2 -0.0448905 -0.0391843 -0.0600883 0.0846236 
1212 1 -0.17822 0.112743 0.00165141 0.210893 
392 1 -0.163193 -0.0684422 -0.0810207 0.19463 
3360 1 -0.272708 0.011849 -0.33753 0.434093 
901 1 -0.258908 -0.147145 -0.308523 0.428802 
3319 1 -0.0961322 0.124876 -0.0614215 0.169139 
3588 2 -0.179498 0.0862143 0.0971309 0.221556 
2365 1 0.0156637 -0.00239202 -0.149798 0.150634 
306 1 -0.160649 -0.00574586 -0.0778029 0.17859 
3093 1 -0.134416 0.00601919 -0.0819919 0.157564 
2745 1 -0.192399 0.00764259 -0.213382 0.287415 
355 1 -0.180253 -0.090979 -0.0541748 0.209053 
3097 1 -0.00842086 0.0526919 -0.146917 0.156307 
228 1 -0.26278 0.0163268 -0.075296 0.273842 
3324 1 -0.00815305 0.0563512 -0.0940264 0.109922 
951 1 -0.072588 0.112178 -0.109592 0.172811 
2737 1 -0.22446 -0.0623195 0.0727166 0.244037 
2959 1 -0.127389 0.0764422 -0.106021 0.182515 
4284 2 -0.266144 0.0989162 -0.0869889 0.296958 
4225 2 0.164739 -0.081428 0.0338556 0.186857 
3483 2 0.036008 0.0643409 0.0487171 0.0883724 
468 1 0.0581171 0.060375 0.0416633 0.0935873 
4116 2 -0.0881401 0.0125606 -0.0480909 0.101189 
332 1 -0.195346 -0.12748 -0.0822076 0.247325 
1304 1 0.265481 -0.144502 -0.0140802 0.302587 
3617 2 0.20002 -0.0738076 -0.0831329 0.228837 
716 1 0.256959 0.0014313 -0.17003 0.308124 
389 1 0.197054 -0.103369 -0.125234 0.255341 
206 1 0.0569953 -0.0200063 -0.0904414 0.108758 
71 1 0.180677 -0.0806977 -0.0621319 0.207404 
4185 2 0.146601 -0.256809 -0.165993 0.339111 
3561 2 0.0655844 -0.00689998 0.0136724 0.0673488 
3535 2 0.0802415 -0.04214 -0.0673125 0.112896 
353 1 0.119139 -0.0857036 -0.0415165 0.152521 
3094 1 0.0553307 -0.14146 -0.00254718 0.151917 
4298 2 -0.0370343 -0.108839 -0.0538471 0.126953 
3676 2 0.0791178 0.0596392 -0.0330947 0.104459 
388 1 -0.0590406 0.00824038 0.082893 0.102103 
1313 1 0.0960734 0.0543827 -0.110707 0.156344 
444 1 -0.0839292 0.0768032 -0.0367508 0.119555 
3668 2 0.00273158 0.0616129 -0.00111832 0.0616836 
838 1 -0.0517983 0.155811 -0.00906702 0.164446 
460 1 0.133477 -0.16175 0.087615 0.227278 
499 1 0.0375258 0.0123937 -0.0944999 0.102431 
3548 2 -0.522971 -0.416295 0.111865 0.677727 
763 1 0.066004 0.251574 0.0850584 0.273644 
3301 1 -0.168643 0.0146087 0.029166 0.171769 
291 1 0.0566904 0.0493563 -0.142476 0.161088 
482 1 0.11035 -0.0385887 0.0262076 0.119804 
1314 1 -0.00737307 0.173882 0.00236656 0.174054 
3672 2 0.119461 0.191169 -0.0359474 0.228273 
375 1 0.099504 0.019705 0.00442135 0.101533 
94 1 0.152791 -0.22087 -0.197556 0.333403 
37 1 0.0391861 0.0456275 0.212148 0.220509 
3281 1 0.163785 0.033355 0.0500492 0.17448 
4309 2 -0.0902776 -0.0954651 0.0557577 0.142732 
4264 2 0.110616 0.134383 -0.00295439 0.174079 
3380 1 -0.17455 0.0729972 0.0368594 0.192756 
1354 1 -0.11395 0.0684743 0.0341862 0.137267 
436 1 -0.0582919 -0.0113719 -0.0807121 0.100208 
792 1 -0.12731 -0.0939111 -0.0273113 0.16054 
3293 1 -0.194468 0.0540372 -0.135984 0.243371 
318 1 -0.204859 -0.162238 0.0616328 0.26849 
3095 1 -0.357105 0.0696108 -0.0354461 0.365549 
3150 1 -0.199936 0.129563 -0.0166967 0.23883 
3320 1 -0.146726 -0.287227 0.107601 0.340009 
3350 1 -0.0119223 -0.0783082 -0.0111504 0.0799915 
3314 1 -0.1531 -0.130947 -0.326737 0.383854 
2861 1 -0.0952348 -0.22872 -0.0370499 0.25051 
3180 1 -0.0893442 -0.00569667 0.0733563 0.115741 
2961 1 0.037821 -0.00968689 -0.190989 0.194938 
3392 1 -0.0673437 -0.0295373 0.0333182 0.0807325 
3257 1 0.0363247 0.00376712 -0.235563 0.238377 
4257 2 0.578234 0.360412 -0.229238 0.71889 
614 1 0.0617985 -0.0342457 0.0385855 0.0805026 
2479 1 -0.192098 0.103324 -0.225196 0.313514 
160 1 -0.292751 0.136297 0.00230908 0.322932 
771 1 -0.135081 0.110418 0.0142362 0.175048 
4271 2 -0.0152917 0.0811211 -0.0581388 0.100968 
1172 1 0.183566 -0.14186 -0.044198 0.236166 
652 1 0.316257 -0.127314 -0.090949 0.352844 
3568 2 0.137419 -0.0437532 -0.061462 0.156767 
3433 1 0.211407 -0.0514924 -0.0368718 0.220689 
3560 2 0.221836 -0.0963557 -0.101859 0.262433 
917 1 0.0631883 -0.116608 -0.102864 0.167842 
248 1 0.114673 -0.0260903 -0.0326082 0.12204 
3082 1 0.0287633 -0.00125894 -0.0650705 0.0711554 
3419 1 0.0420118 0.126301 0.00469012 0.133188 
325 1 0.0782199 0.0386533 -0.0135331 0.0882925 
292 1 0.1357 0.0243282 0.154241 0.206873 
3444 1 0.151827 -0.117786 -0.0668845 0.203466 
908 1 0.130996 -0.0708347 0.0116879 0.149379 
3504 2 0.187024 -0.107612 0.0778994 0.229405 
423 1 0.15743 0.0227741 0.0929287 0.184224 
502 1 0.0395859 -0.110757 0.0701182 0.136933 
3435 1 0.0295471 -0.0872334 0.0440003 0.102072 
489 1 0.35174 -0.176909 0.088861 0.403627 
439 1 0.148104 0.0501829 0.0777905 0.174655 
4182 2 -0.0784637 -0.046663 -0.0574964 0.107888 
874 1 0.254251 0.0250464 0.0935644 0.272076 
980 1 -0.0325613 -0.0758222 0.115798 0.142192 
810 1 -0.030236 -0.0887309 -0.00927806 0.0941991 
225 1 -0.135262 -0.0857453 0.118652 0.199315 
3331 1 -0.0171911 -0.0324752 -0.0585312 0.0691091 
3312 1 0.0223662 0.0406763 -0.12589 0.134176 
4307 2 -0.192254 -0.0379078 -0.208792 0.286344 
2869 1 0.0203187 -0.0204283 -0.146512 0.149318 
4280 2 0.122848 0.398553 -0.285821 0.505598 
416 1 -0.0111312 -0.0778219 -0.000755423 0.0786175 
365 1 -0.077766 -0.189672 0.0831559 0.22122 
3799 2 -0.0493537 -0.166834 -0.115809 0.209 
2819 1 0.016161 -0.0504135 -0.0665264 0.0850204 
382 1 -0.0751988 0.197135 -0.0568695 0.218521 
295 1 -0.102746 -0.0352472 -0.109257 0.154066 
404 1 -0.093217 0.0441666 -0.063265 0.121006 
490 1 -0.113008 0.009501 -0.176065 0.209428 
2776 1 -0.0654346 0.0149828 0.197203 0.208315 
2973 1 -0.145634 0.0459994 -0.0876308 0.176081 
957 1 0.0661845 -0.14444 -0.0493977 0.166384 
795 1 0.0800444 -0.221243 0.158061 0.283441 
3266 1 -0.142669 -0.0759039 -0.131227 0.208174 
3070 1 -0.0631441 -0.0484756 -0.157506 0.17648 
783 1 -0.50919 -0.147725 0.0160773 0.530429 
4256 2 -0.19179 -0.410424 0.260377 0.52252 
471 1 -0.111624 0.322113 -0.353967 0.491436 
107 1 -0.254833 -0.0328057 -0.105872 0.277894 
4285 2 0.00381161 0.341715 -0.328763 0.474204 
496 1 0.0903229 0.0547392 0.0853711 0.135804 
2993 1 -0.309091 0.305486 -0.0643135 0.439312 
517 1 0.109256 0.0441199 -0.090807 0.14876 
279 1 -0.0528504 0.416449 0.0765311 0.426708 
4028 2 -0.104785 0.0365316 0.0855593 0.140124 
3322 1 0.12446 0.0698962 -0.0541676 0.152676 
3863 2 -0.115246 -0.0850307 0.14186 0.201584 
274 1 0.145078 -0.0839657 -0.19122 0.254289 
1091 1 -0.0357642 -0.062527 0.163088 0.178287 
3396 1 0.0840444 0.0198401 0.0684972 0.110222 
329 1 -0.227501 0.0280645 -0.205191 0.307649 
3383 1 -0.000631258 0.0340994 -0.148366 0.152235 
187 1 -0.148807 0.178888 0.266105 0.353492 
2545 1 -0.019561 -0.11039 -0.120572 0.16464 
3327 1 0.0197773 0.119808 -0.0431145 0.128857 
3674 2 -0.0368243 -0.06264 0.194589 0.207713 
1418 1 0.121278 -0.109147 -0.0459076 0.169496 
443 1 -0.065679 -0.105674 -0.144313 0.190544 
855 1 0.0286742 -0.13328 -0.0982198 0.168027 
3420 1 -0.0406704 -0.195302 -0.063939 0.209488 
3476 2 -0.0314436 -0.115024 -0.108563 0.161261 
177 1 0.0282917 0.0627074 -0.0295003 0.0748526 
363 1 -0.0832754 -0.164674 -0.114292 0.217059 
1450 1 -0.11528 -0.112145 0.00205779 0.160842 
3559 2 -0.054068 -0.0432853 0.0402559 0.0801093 
347 1 -0.139364 -0.224976 -0.0443364 0.268332 
319 1 -0.174684 -0.0649218 -0.126116 0.225021 
4237 2 -0.0157852 -0.07568 -0.121386 0.143914 
875 1 0.0115204 -0.0635533 0.102913 0.121502 
1289 1 -0.13738 -0.0525179 0.11038 0.183889 
3291 1 0.164432 -0.265474 0.219957 0.381963 
830 1 -0.155352 -0.074281 -0.0800978 0.189915 
937 1 -0.0206802 0.0602291 -0.0477608 0.079601 
268 1 0.21478 -0.0945382 0.215754 0.318776 
854 1 0.0267081 0.0519604 0.0767378 0.0964463 
442 1 -0.161283 0.0106009 -0.0970908 0.18855 
314 1 -0.161494 -0.0426645 0.102195 0.195817 
501 1 -0.0755837 -0.0605375 0.0724948 0.120968 
419 1 0.372422 -0.298166 0.302988 0.565157 
899 1 0.0300699 -0.114423 -0.156522 0.196204 
474 1 -0.0769499 -0.0367115 -0.297095 0.309086 
964 1 -0.204559 -0.00747163 -0.0260258 0.206343 
793 1 -0.179938 -0.171398 -0.0209305 0.249385 
3397 1 -0.131591 -0.133863 -0.0854547 0.206247 
3643 2 0.0155396 -0.150548 -0.0110836 0.151754 
208 1 0.193918 -0.0239111 -0.0283751 0.197437 
822 1 0.153708 -0.0955525 0.183311 0.257603 
1337 1 0.0891017 -0.115796 0.0299824 0.149154 
3278 1 0.0309405 -0.133468 -0.119307 0.181673 
3544 2 0.0412451 0.0285884 0.134897 0.143929 
1430 1 -0.00448168 -0.169754 0.132412 0.215335 
3200 1 0.0940543 0.0441129 0.0818563 0.13226 
757 1 -0.110065 -0.083506 0.0823259 0.160826 
699 1 0.110569 0.231555 0.0773429 0.268003 
85 1 0.111646 0.0364485 0.323731 0.344377 
3240 1 -0.17706 0.0951554 0.155991 0.254437 
113 1 0.15453 -0.0189692 -0.0495613 0.163389 
504 1 -0.0100942 0.0997668 0.25582 0.274772 
2795 1 -0.111987 -0.134892 0.216328 0.278451 
3678 2 -0.0397549 0.019689 0.151683 0.158038 
876 1 0.0867679 -0.172589 -0.0558694 0.20109 
581 1 -0.182757 -0.045369 0.0296114 0.190618 
3541 2 -0.0899104 -0.00719816 0.0333431 0.0961637 
786 1 0.0685473 -0.162908 0.141186 0.22621 
800 1 0.0424189 -0.13737 -0.0126195 0.144323 
367 1 0.24748 -0.00329485 0.123623 0.276658 
2687 1 -0.00242818 -0.102695 0.062753 0.120374 
3545 2 -0.0278493 -0.00401411 -0.0161403 0.0324377 
491 1 -0.00461818 -0.15754 -0.0912751 0.18213 
819 1 0.0119304 0.000719891 0.0300931 0.0323798 
2814 1 -0.118523 0.0426978 0.00428628 0.126052 
1723 1 -0.0599611 0.00156257 -0.17165 0.181829 
3264 1 -0.0285854 -0.32091 0.0536638 0.326619 
440 1 -0.205529 0.0206446 -0.0759202 0.220073 
3434 1 -0.115091 0.0626519 -0.306302 0.333155 
31 1 -0.102757 -0.14047 -0.135651 0.220663 
4154 2 -0.0895395 0.111562 -0.141355 0.201109 
328 1 0.0380468 -0.21337 0.0333925 0.219293 
308 1 0.0679233 -0.027307 -0.0426525 0.0847259 
431 1 -0.0353319 0.0766367 -0.119784 0.146526 
968 1 -0.128417 -0.114714 0.0594753 0.182175 
801 1 -0.123945 -0.00635531 -0.0509444 0.134157 
2656 1 -0.159456 -0.0311622 -0.0210034 0.163825 
421 1 0.0313341 0.0773963 -0.0366907 0.0912042 
1254 1 -0.0433257 0.0685773 -0.0539257 0.0974061 
461 1 -0.166146 0.0775032 0.0677108 0.195438 
3192 1 -0.154231 -0.0516497 -0.197448 0.255814 
3339 1 -0.203263 0.0697636 0.0446633 0.219494 
2884 1 -0.0221489 -0.16907 -0.0402761 0.175207 
840 1 -0.186268 0.0172209 -0.109172 0.216589 
4152 2 -0.17032 0.189226 -0.0395736 0.257646 
3436 1 -0.0585336 -0.0537301 -0.0475936 0.0926189 
3371 1 -0.0333936 -0.0874795 -0.159236 0.184726 
486 1 -0.0496823 0.0540169 0.0242221 0.0772843 
402 1 0.10035 0.167496 0.107976 0.223123 
781 1 -0.00943315 -0.315595 0.041883 0.318502 
307 1 -0.0703327 0.0506982 0.0542062 0.102251 
4143 2 0.105249 -0.122698 0.170227 0.234754 
4098 2 -0.0225683 -0.294022 0.359997 0.465356 
647 1 0.296897 0.171577 0.275525 0.439887 
3378 1 0.154308 0.0916838 0.321845 0.368512 
128 1 -0.0224271 0.137877 0.0340165 0.143771 
907 1 -0.0513987 0.0814938 0.0456234 0.106605 
1641 1 0.0635141 0.160942 -0.0428468 0.178248 
891 1 -0.124731 -0.0485013 0.0550515 0.14471 
1300 1 -0.00419877 0.054534 -0.0445296 0.0705299 
1934 1 0.180764 0.18992 -0.0941118 0.278572 
345 1 0.0202542 0.0635733 -0.00914835 0.0673461 
1535 1 0.188575 -0.0385354 -0.0934774 0.213971 
573 1 -0.258804 0.0304568 0.0462071 0.264655 
3844 2 0.0296245 -0.307909 0.164008 0.35012 
631 1 0.127642 0.208842 -0.0610434 0.252257 
606 1 -0.0287485 0.0029106 0.114273 0.117869 
1569 1 -0.00641357 -0.29702 -0.0461279 0.300649 
1474 1 -0.108994 0.0798902 0.196986 0.238884 
3600 2 0.121352 0.114679 -0.203581 0.263293 
683 1 0.0111403 -0.2325 -0.0357724 0.2355 
63 1 -0.0861153 0.115584 0.0344507 0.148197 
577 1 -0.123039 0.0258942 0.11318 0.169171 
565 1 -0.0266941 0.0654999 0.132321 0.150038 
3616 2 -0.375352 0.200933 0.17486 0.46026 
3418 1 -0.00210178 0.0781753 0.0586259 0.0977383 
4176 2 -0.0822622 0.0731998 0.0991557 0.148179 
69 1 -0.140065 0.0283367 0.0535331 0.152601 