ITEM: TIMESTEP
10800
ITEM: NUMBER OF ATOMS
4320
ITEM: BOX BOUNDS pp pp pp
0.0000000000000000e+00 1.9309999999999999e+01
0.0000000000000000e+00 1.9309999999999999e+01
0.0000000000000000e+00 9.6549999999999994e+00
ITEM: ATOMS id type c_displacement[1] c_displacement[2] c_displacement[3] c_displacement[4] 
3196 1 -0.388943 0.0486025 -0.0733152 0.398765 
381 1 -0.200075 -0.0661041 0.180614 0.277527 
327 1 0.0418188 0.0686531 -0.0338689 0.0872305 
484 1 -0.0886627 0.0315657 0.263064 0.279393 
728 1 0.0238118 -0.0994958 0.020151 0.104271 
303 1 0.146993 -0.147746 -0.309911 0.373471 
3006 1 0.116212 -0.150131 0.0395623 0.193932 
233 1 0.105743 0.121815 0.168307 0.233126 
2945 1 0.173901 0.245358 -0.099708 0.316834 
3230 1 0.273229 0.157009 -0.00179872 0.315134 
3651 2 0.0459684 0.164719 0.0947912 0.195527 
197 1 -0.131942 0.348883 0.17988 0.414107 
400 1 0.0300088 0.0705913 -0.0290241 0.0820126 
677 1 -0.0859074 -0.0938306 0.221306 0.255266 
87 1 0.103937 0.103861 0.00303302 0.146967 
4053 2 0.387654 -0.11745 0.032122 0.406327 
623 1 0.125035 0.117937 -0.10332 0.200544 
727 1 0.126579 0.0637489 -0.216194 0.258507 
688 1 0.168136 0.0128865 0.10122 0.196675 
58 1 0.0979879 0.0534072 0.00589037 0.111753 
215 1 -0.0377205 0.0522493 0.013403 0.0658215 
18 1 0.142999 0.152203 0.104301 0.233437 
190 1 -0.0566812 0.138322 -0.18971 0.241527 
298 1 0.0974523 0.0235158 -0.0194416 0.102117 
3618 2 -0.174463 0.348964 0.131083 0.411578 
110 1 0.0443597 -0.0278647 0.0533173 0.0747459 
608 1 0.0919235 0.0405966 0.00711483 0.10074 
106 1 -0.0479973 0.0340888 -0.0287611 0.0655209 
217 1 0.0137311 0.022031 -0.0258444 0.0366312 
775 1 0.11043 0.00545064 -0.0369273 0.116568 
3627 2 0.053202 0.110815 -0.00150593 0.122934 
180 1 0.0712521 0.0726071 0.197625 0.222271 
3118 1 0.0883046 0.117587 -0.105055 0.180724 
562 1 -0.0437875 0.0145028 -0.0758709 0.0887923 
70 1 0.0719708 0.114337 0.0243668 0.137283 
121 1 0.0199955 0.0874367 -0.0765622 0.117927 
1118 1 -0.0534211 -0.0968925 0.029064 0.114397 
4214 2 0.19578 0.104268 -0.0211023 0.222816 
65 1 0.0311382 0.0764515 0.0912996 0.123085 
210 1 0.0932662 0.0282362 0.0376603 0.104471 
232 1 -0.122087 0.0403464 -0.0205537 0.130213 
1133 1 0.301544 0.275813 -0.0179144 0.409051 
226 1 0.248652 0.0413233 0.0753945 0.263097 
532 1 -0.111615 0.135602 -0.0305187 0.178262 
3578 2 0.135907 0.0469537 0.0564274 0.154465 
473 1 0.109154 -0.0110456 -0.0462143 0.119048 
246 1 0.0449355 0.0673126 0.0603749 0.100972 
594 1 0.082134 0.230132 -0.100618 0.264255 
2478 1 -0.00736883 0.23379 0.0128044 0.234256 
817 1 0.243418 -0.0720661 0.198688 0.32237 
4071 2 0.137678 -0.163847 0.115433 0.243158 
2838 1 0.109937 0.076021 0.0276968 0.1365 
536 1 0.0313588 0.111372 0.113802 0.162289 
894 1 -0.0463321 -0.0551592 -0.215742 0.22745 
289 1 0.0164086 -0.196492 0.105336 0.223549 
351 1 -0.0430113 0.0870413 -0.202132 0.22424 
3135 1 -0.022344 0.248955 -0.0396652 0.253084 
3251 1 -0.266266 0.153263 -0.506058 0.592016 
4034 2 0.318196 0.18421 0.550504 0.661994 
1415 1 0.209523 0.149081 -0.0406383 0.260339 
527 1 -0.209034 -0.039788 -0.0113802 0.213091 
3002 1 -0.0867536 0.173932 0.0174538 0.195149 
3189 1 0.247972 0.0427449 0.028833 0.253276 
712 1 0.0457132 -0.023767 -0.0325257 0.0609302 
718 1 0.127074 -0.0181878 0.160184 0.205274 
3469 2 0.124656 -0.0181525 0.026186 0.128664 
725 1 -0.0232394 0.0683569 -0.0278462 0.0773831 
3712 2 0.00408146 0.0947736 -0.067054 0.116168 
4177 2 0.264494 -0.420854 0.134536 0.514952 
93 1 -0.082583 0.128272 0.119685 0.193902 
569 1 0.046306 -0.0101307 0.0112641 0.0487212 
639 1 -0.160013 0.067641 -0.00706781 0.173866 
21 1 -0.0436904 -0.0507094 -0.0766513 0.101763 
3353 1 -0.169886 -0.148589 -0.0675045 0.235578 
167 1 0.00787782 0.0296607 0.0936881 0.0985864 
3514 2 0.0272396 0.155636 -0.105197 0.189818 
823 1 0.122524 0.049441 -0.0789109 0.153895 
2596 1 0.0385786 -0.167788 0.217921 0.277724 
50 1 0.0714731 -0.109349 0.103415 0.166614 
2495 1 0.0204168 0.0220535 0.0452815 0.0543472 
28 1 -0.0204533 0.097571 0.0158194 0.100939 
3055 1 0.193623 -0.0980652 -0.00380999 0.217074 
12 1 0.136329 0.0754555 -0.0504818 0.163791 
738 1 -0.0215125 0.0286115 0.0185086 0.0402986 
4170 2 0.00384346 0.0320841 0.183525 0.186348 
2453 1 -0.0335887 0.109231 0.0242524 0.116824 
3167 1 -0.077614 -0.0191836 0.0157644 0.081489 
339 1 0.131379 0.222525 -0.0229173 0.259428 
3199 1 -0.0730506 0.0434537 -0.0258392 0.0888385 
390 1 0.0899571 0.0922632 0.00673636 0.129035 
203 1 0.103611 -0.0267253 0.00503478 0.10712 
3582 2 0.0184407 0.355074 0.00697697 0.355621 
3632 2 0.0936503 0.209493 -0.13273 0.265094 
231 1 0.131217 0.154863 0.0632541 0.212607 
323 1 0.132403 0.0918175 -0.0372958 0.165384 
3244 1 0.12807 0.117571 -0.0977801 0.199464 
118 1 0.216974 0.0657223 -0.0302348 0.228717 
3916 2 -0.256777 0.00786375 -0.108481 0.278862 
7 1 -0.0163206 -0.316371 -0.00433334 0.316821 
2960 1 -0.177157 0.08924 -0.182009 0.269213 
2735 1 -0.133688 -0.109428 0.115001 0.207539 
29 1 -0.109645 0.442991 -0.105473 0.468389 
753 1 -0.00502975 -0.13691 -0.176616 0.223524 
3467 2 -0.256595 0.280167 0.237071 0.447814 
553 1 -0.173212 0.273947 -0.339346 0.46926 
559 1 0.082338 -0.0316439 -0.0433295 0.0982768 
2768 1 0.184417 0.0774292 -0.189763 0.275708 
255 1 -0.0116902 -0.0313172 -0.00778904 0.0343235 
96 1 0.190962 -0.176701 -0.14376 0.297249 
4228 2 0.0967668 0.108001 -0.178859 0.230258 
437 1 0.172468 0.212817 -0.353019 0.446832 
53 1 0.308224 0.178049 -0.202961 0.409752 
593 1 0.0534525 0.201788 0.00408003 0.208787 
609 1 0.358584 0.0720124 -0.253711 0.445127 
3040 1 0.0622912 0.182048 -0.151134 0.244669 
610 1 0.0459993 -0.0196021 0.141596 0.150166 
89 1 0.100846 0.0385542 0.0148599 0.108982 
3149 1 -0.0128608 -0.0909745 0.147909 0.174123 
550 1 0.14265 -0.12711 0.114832 0.222918 
147 1 0.0820003 -0.112275 0.169131 0.218941 
247 1 0.146283 0.139727 0.146843 0.24997 
2936 1 -0.00340512 0.139078 -0.0259707 0.141523 
3554 2 0.0963416 -0.0829483 0.225579 0.258936 
3786 2 -0.0305282 0.1059 -0.0155939 0.11131 
5 1 0.0860954 0.069081 0.0544769 0.123095 
2591 1 0.200152 -0.0815141 0.0739252 0.228408 
3232 1 0.0949832 0.0825177 -0.00823203 0.12609 
1215 1 0.255139 0.0865668 -0.0109689 0.269648 
859 1 0.219325 0.0369497 -0.0329762 0.224847 
3152 1 -0.127195 -0.007501 0.000570954 0.127417 
59 1 -0.0394826 -0.0760001 0.0963427 0.128906 
1454 1 0.00217597 0.0605777 -0.144634 0.156823 
424 1 0.119717 0.0549021 0.000775252 0.131708 
151 1 0.104604 -0.0670759 0.0301701 0.127873 
3743 2 0.0879556 0.0912424 -0.0368117 0.131971 
3023 1 0.115286 0.120079 -0.0393642 0.171053 
2461 1 0.0190215 0.0447855 -0.0963213 0.107914 
988 1 -0.0289405 -0.0877707 -0.0800091 0.12224 
23 1 0.160357 -0.0086349 -0.113262 0.196512 
3730 2 0.0335192 -0.0460216 -0.128105 0.140187 
43 1 0.122228 -0.0853592 -0.129766 0.197649 
66 1 0.215553 0.0392916 -0.218098 0.30915 
3346 1 0.0892145 0.0740542 -0.148098 0.188086 
4289 2 -0.0778064 0.00399542 -0.00885876 0.078411 
3611 2 -0.0168135 -0.0485833 -0.0549616 0.0752583 
3478 2 0.191454 0.0177081 -0.0531193 0.199474 
3586 2 0.0123466 -0.164161 0.0849063 0.18523 
546 1 -0.0564659 0.110859 -6.51986e-05 0.124411 
3460 2 0.0335245 -0.0571333 0.058898 0.0886402 
2500 1 -0.0239419 0.0399611 -0.0359654 0.0588525 
3188 1 -0.0213968 0.529042 -0.117429 0.54234 
529 1 -0.235805 -0.115639 -0.331269 0.422748 
825 1 -0.0915582 0.156369 0.0929341 0.203644 
140 1 -0.0763449 -0.177528 0.120047 0.2275 
2931 1 -0.134111 0.033122 0.1498 0.203772 
691 1 -0.0616798 -0.330115 0.0633642 0.341753 
949 1 -0.0415508 0.090562 0.0248252 0.102685 
3491 2 -0.17894 0.513414 -0.403425 0.677027 
3493 2 0.418082 0.121327 0.307492 0.532977 
174 1 -0.0644802 -0.0947333 0.0827023 0.141322 
3464 2 -0.306513 -0.658706 -0.0893416 0.732001 
3608 2 0.124555 0.105544 0.0324438 0.166452 
1480 1 -0.182166 -0.159152 0.283523 0.372692 
2968 1 0.300596 -0.0456593 0.0466162 0.307596 
98 1 0.263674 -0.188865 0.00595325 0.324391 
40 1 0.141929 0.00924069 0.111228 0.180557 
133 1 0.178829 0.124554 0.0103457 0.218176 
1130 1 0.0487497 -0.0611929 0.0122387 0.079189 
3041 1 0.0717564 -0.0456441 0.0515912 0.0994686 
604 1 0.0470385 -0.0203277 0.00205601 0.0512841 
721 1 -0.149672 0.0321681 -0.0120525 0.153563 
3164 1 0.150188 0.131951 -0.00982888 0.20016 
471 1 -0.11991 0.576704 -0.329889 0.675124 
3830 2 -0.454643 -0.0520214 0.196577 0.498045 
241 1 -0.0776004 0.113548 -0.0167915 0.138553 
446 1 0.0198879 -0.141079 -0.00935059 0.14278 
2873 1 -0.227082 0.131185 0.141168 0.297833 
920 1 -0.0370573 0.194677 -0.250272 0.319231 
64 1 0.0214273 -0.102537 -0.212639 0.237041 
193 1 0.206975 -0.034695 -0.165439 0.267231 
44 1 0.184792 0.019963 0.0500181 0.192479 
2996 1 0.130347 0.117774 -0.201946 0.267663 
4212 2 -0.0590106 0.104525 -0.102223 0.157662 
3279 1 0.125019 0.000619729 -0.0676222 0.142137 
178 1 0.108801 0.158507 -0.187968 0.268875 
330 1 0.159101 0.0745928 -0.0223955 0.177141 
257 1 0.0121039 0.0307564 -0.0183624 0.0378106 
354 1 0.105011 0.178011 0.0214395 0.207785 
3078 1 0.0808788 0.106253 0.0650278 0.148525 
600 1 -0.0171643 0.0276842 -0.057733 0.0662882 
338 1 -0.0709908 0.0875836 -0.0466989 0.12203 
4101 2 0.0129709 0.114575 0.048617 0.125137 
3216 1 -0.114519 0.109278 -0.00338362 0.158328 
254 1 -0.0268681 0.368785 -0.185256 0.413575 
4217 2 0.0432941 0.0120589 0.0218941 0.0499915 
479 1 -0.00597092 0.137964 -0.000308887 0.138094 
3335 1 0.0394258 -0.0816657 -0.0275146 0.0947667 
1457 1 0.0199852 -0.0461752 -0.0806495 0.0950573 
3037 1 -0.0779862 0.147298 -0.0423599 0.171968 
4253 2 0.148547 0.00325619 -0.122213 0.192388 
387 1 0.134986 -0.089634 0.0121318 0.162489 
3736 2 -0.0583331 0.205317 0.005547 0.213515 
95 1 0.0346245 -0.0817001 0.0280851 0.0930727 
717 1 -0.0268689 -0.143097 0.164515 0.21969 
508 1 -0.130909 -0.130499 -0.00780508 0.185008 
3537 2 -0.0273539 -0.0611747 0.0568673 0.087889 
747 1 -0.0571207 -0.0593954 0.0105094 0.0830725 
497 1 0.0435679 -0.167897 0.08992 0.19538 
958 1 -0.118549 -0.256896 0.140189 0.315757 
3841 2 -0.0309949 0.0159363 -0.0306738 0.0464277 
4163 2 -0.0564186 -0.11801 0.0763258 0.151443 
3394 1 -0.0648582 -0.0476346 -0.10217 0.130055 
1331 1 -0.217152 -0.0258964 0.227917 0.315867 
4204 2 -0.115659 -0.0170068 0.0167954 0.118103 
86 1 0.357653 0.126583 -0.097086 0.391618 
759 1 0.109585 0.034375 -0.151441 0.190066 
3411 1 -0.214193 0.0993802 0.194592 0.305975 
835 1 -0.255276 0.300128 0.0207898 0.394556 
3057 1 0.306579 0.0901252 -0.185675 0.369579 
3620 2 -0.14633 0.374284 0.107939 0.416115 
704 1 0.1498 0.405895 0.109895 0.446394 
157 1 0.145587 0.334466 -0.0345715 0.366412 
54 1 0.102405 -0.0926164 -0.0207733 0.139628 
493 1 -0.0732563 0.255742 -0.168297 0.314793 
204 1 0.0611005 -0.00285487 -0.0428519 0.0746841 
80 1 -0.125873 0.189716 -0.0581623 0.234987 
3599 2 -0.216957 0.264889 -0.0973238 0.355961 
191 1 0.195929 0.214958 0.225483 0.368018 
67 1 0.143749 -0.0107238 -0.0421612 0.150187 
2988 1 -0.255887 0.190463 -0.241603 0.400158 
3030 1 -0.321426 0.246569 -0.150047 0.432002 
4050 2 0.0433186 0.179495 -0.114266 0.217144 
3479 2 0.00768015 0.797187 -0.129901 0.807738 
2004 1 -0.0580482 -0.113156 -0.0470938 0.135616 
674 1 0.071058 0.0784242 -0.01947 0.107604 
3007 1 -0.00248571 0.05991 -0.141211 0.153414 
234 1 0.0199232 0.0750765 -0.103164 0.129137 
1036 1 -0.00856423 0.0649265 -0.0410869 0.0773106 
3369 1 -0.000422668 0.12242 0.102903 0.159924 
3607 2 -0.0573733 0.103754 0.0554562 0.130889 
3139 1 -0.0198373 0.185409 -0.213024 0.283106 
644 1 -0.187043 0.0969147 0.0652958 0.220547 
4269 2 -0.0610997 0.137446 0.0222632 0.152053 
1278 1 0.157151 0.0813215 0.0185016 0.177909 
580 1 -0.213983 -0.0416488 0.139194 0.258647 
563 1 -0.0925174 0.0895899 -0.099592 0.162802 
214 1 0.0725588 0.0734814 -0.0219384 0.105573 
640 1 0.0798712 0.131797 0.0487115 0.161625 
199 1 0.159652 -0.094851 -0.155862 0.242443 
245 1 0.00119324 0.0593772 0.0870084 0.105345 
2758 1 -0.0441943 0.138316 -0.0759735 0.163879 
3056 1 0.173084 0.0135433 -0.0584192 0.183178 
3468 2 -0.068532 0.119109 0.185922 0.231194 
4089 2 -0.00113383 0.252533 -0.0450894 0.25653 
249 1 -0.242466 0.0799988 0.0167284 0.25587 
3518 2 -0.0803133 0.44525 0.0344201 0.453743 
2684 1 -0.203393 0.173854 -0.181858 0.323522 
3096 1 -0.140765 0.0790113 0.0140814 0.162036 
240 1 0.0293349 0.108849 -0.0613258 0.128334 
181 1 -0.165405 -0.146868 0.035026 0.223955 
46 1 0.00831 -0.20501 0.0119165 0.205524 
3211 1 0.065402 0.0529343 0.12071 0.147141 
3603 2 0.0313405 -0.243245 0.260227 0.357587 
216 1 -0.0456755 0.0898253 -0.0702971 0.122868 
2939 1 -0.0373093 0.0299316 0.0157943 0.0503721 
1102 1 0.19024 0.456773 -0.389982 0.630015 
3701 2 0.306545 0.0435087 -0.118307 0.33145 
3513 2 0.047527 -0.340919 0.0181144 0.344692 
312 1 0.19712 0.0617102 -0.238227 0.315304 
587 1 0.0465179 0.0386605 0.180313 0.190187 
135 1 -0.113719 -0.0914322 0.04994 0.154227 
3512 2 0.148442 0.0200907 0.0851389 0.1723 
134 1 0.0629198 0.0777933 0.08449 0.130955 
103 1 -0.0449513 0.149856 -0.0718917 0.17218 
2977 1 0.101258 0.0262198 0.0767456 0.129733 
3003 1 0.100257 0.00959658 0.0542178 0.114381 
195 1 -0.00424356 0.0548617 0.0646917 0.0849283 
2995 1 -0.0717558 -0.130557 -0.168664 0.225037 
685 1 0.107028 0.126421 -0.0430921 0.171155 
602 1 -0.0583855 0.182168 0.156927 0.247427 
3092 1 0.122717 0.0477974 0.0829189 0.155626 
4195 2 -0.0879731 -0.141338 -0.0276557 0.168762 
540 1 -0.145704 0.293313 -0.243182 0.407921 
3408 1 -0.140127 0.122955 0.0721422 0.199895 
182 1 0.0100862 -0.0559206 -0.258776 0.264942 
427 1 0.0687695 -0.145962 -0.0767447 0.178673 
4173 2 -0.040501 0.162436 -0.165787 0.235608 
2950 1 -0.0360309 -0.177848 -0.121277 0.218257 
6 1 -0.259634 0.167742 -0.0762898 0.318382 
690 1 0.0307704 0.114347 -0.111563 0.16269 
902 1 0.00575902 0.233014 -0.0516176 0.238732 
3130 1 0.0512642 -0.0788929 -0.0818067 0.124677 
3115 1 -0.110945 0.24327 0.0410271 0.270504 
742 1 -0.0555152 0.111708 -0.123521 0.175551 
2926 1 -0.0198413 0.0263247 0.0345795 0.0477746 
710 1 0.0225504 0.0594867 -0.0375492 0.0738725 
3010 1 0.00889627 0.151021 0.00756918 0.151472 
2934 1 -0.0316401 0.0494027 -0.0838155 0.102307 
2494 1 0.0454724 -0.0231322 -0.0175193 0.0539423 
3679 2 -0.0335866 0.121898 -0.103157 0.163182 
1149 1 0.114422 -0.0426242 0.324493 0.346706 
154 1 0.0894207 -0.00616536 0.0613625 0.108625 
143 1 0.147205 0.136481 0.0482821 0.206464 
131 1 0.0795023 -0.108416 -0.149021 0.200703 
3643 2 0.044422 -0.0781033 -0.0752404 0.117195 
78 1 0.0937749 -0.0145153 0.00142116 0.0949023 
205 1 -0.244228 0.172413 0.00790666 0.299059 
694 1 -0.258069 0.169583 -0.00928096 0.30894 
861 1 -0.241773 0.143336 0.0961285 0.297053 
3549 2 -0.148283 0.0904054 -0.347373 0.388367 
3401 1 -0.115494 0.117457 0.0290051 0.167261 
389 1 0.137675 -0.225062 -0.0891062 0.278473 
3808 2 0.0213927 0.0890855 -0.0832321 0.12378 
512 1 0.0596608 0.105405 -0.00906827 0.121457 
300 1 -0.0912008 0.134518 0.111868 0.1973 
393 1 -0.0765886 0.0307498 -0.113448 0.140292 
2740 1 -0.0771179 0.127876 0.0338542 0.15312 
3341 1 -0.192284 0.266895 -0.0678491 0.335872 
886 1 -0.124706 0.106207 0.349949 0.386388 
3393 1 -0.03756 0.0845757 -0.052785 0.106537 
3197 1 -0.19479 0.119181 -0.131287 0.263407 
286 1 -0.176964 -0.024447 0.0353725 0.182113 
2479 1 -0.148254 0.349093 -0.129054 0.400624 
277 1 -0.173826 0.133149 0.00394765 0.218997 
364 1 -0.143265 -0.00284438 0.212972 0.256691 
1367 1 -0.0894737 -0.00480835 -0.00342768 0.0896684 
411 1 -0.306507 0.121979 0.0612536 0.335526 
3389 1 -0.112668 -0.0413065 -0.0857768 0.147506 
287 1 -0.0719966 -0.0636018 -0.0497336 0.108176 
3658 2 -0.0834957 0.05878 0.172434 0.2004 
966 1 -0.173625 -0.019899 0.13534 0.22104 
357 1 -0.370082 0.0427767 0.151481 0.402165 
362 1 -0.0785706 0.0840235 0.159581 0.196721 
478 1 -0.172617 0.187438 -0.00690822 0.254907 
4159 2 -0.0670548 0.171773 0.384728 0.426636 
3612 2 -0.100072 0.208213 0.073454 0.24241 
780 1 -0.19921 0.128365 -0.238978 0.33656 
2710 1 -0.187669 0.143033 -0.379583 0.446947 
3313 1 0.0103811 0.043654 -0.0528378 0.0693201 
924 1 -0.0221151 0.143273 0.129714 0.19453 
3290 1 0.0147698 0.0131783 -0.163781 0.164973 
3319 1 0.0359405 -0.12623 -0.235325 0.269451 
100 1 0.034 -0.00576559 -0.0915271 0.0978083 
903 1 -0.00134951 0.213334 -0.0602808 0.221691 
3333 1 -0.0721406 -0.0616241 -0.15272 0.179792 
3526 2 -0.0283342 -0.0692181 -0.158525 0.175283 
3303 1 0.00204998 0.136636 0.0755803 0.15616 
3249 1 -0.0504437 0.141511 -0.134579 0.201696 
92 1 -0.132328 -0.0314329 0.0288062 0.139027 
3379 1 -0.0750807 -0.0311089 -0.0262153 0.0853939 
4154 2 -0.246407 0.217733 0.0809248 0.338634 
160 1 -0.140204 0.391249 -0.0343763 0.417031 
1077 1 -0.117452 0.115169 -0.034562 0.168087 
3225 1 0.0542244 0.134924 0.0821846 0.16703 
3162 1 -0.171764 0.109445 -0.093906 0.224276 
462 1 -0.115213 -0.0460936 0.0464719 0.132508 
2966 1 0.120259 0.018011 -0.0336619 0.126174 
3022 1 -0.0719667 0.133916 0.0538915 0.161298 
750 1 -0.091071 0.0916681 0.023289 0.131299 
3257 1 -0.105334 0.193877 -0.204233 0.300657 
4006 2 -0.247295 -0.0821672 0.19979 0.328364 
449 1 0.0582397 -0.00174566 -0.0447879 0.0734905 
3647 2 -0.232388 0.00331292 0.132203 0.267381 
2890 1 0.0981129 0.0138708 0.0806254 0.127746 
1285 1 -0.0687061 0.169083 0.397074 0.43701 
3209 1 -0.103907 -0.114345 -0.21566 0.265293 
943 1 0.0480035 -0.0452126 0.107477 0.126094 
3305 1 0.0420426 0.134246 0.0783115 0.161004 
3409 1 0.0401696 -0.136805 -0.0162118 0.1435 
4318 2 -0.0645788 -0.0137371 0.0676843 0.0945531 
3404 1 -0.055269 -0.00431173 0.0438152 0.0706614 
356 1 0.0758224 -0.0855586 0.0790709 0.139002 
3883 2 0.0150819 -0.0319743 0.0717775 0.0800114 
3227 1 0.021729 -0.104693 0.0638886 0.124557 
373 1 0.0408301 -0.00534209 0.032206 0.0522768 
4297 2 -0.0446585 0.00218962 -0.0127046 0.0464821 
3531 2 -0.0596807 -0.0561429 -0.0512582 0.0966499 
398 1 0.0818202 -0.109883 -0.00501645 0.137091 
2732 1 0.089149 -0.140233 -0.0446666 0.172069 
2696 1 0.0607157 0.119438 -0.0264574 0.136572 
309 1 -0.0556586 0.0504477 0.0167394 0.0769614 
3221 1 -0.0579696 -0.020413 0.0253861 0.0664952 
836 1 -0.226016 -0.181741 0.229703 0.369969 
394 1 0.104 0.0372818 0.00649213 0.110671 
412 1 -0.0400022 -0.0460651 0.0588247 0.0847497 
3573 2 -0.213283 -0.112296 0.116004 0.267502 
3360 1 -0.228969 -0.0789125 -0.174096 0.298267 
2365 1 -0.0431367 0.0921431 -0.218039 0.240608 
3588 2 0.0143852 0.0107063 -0.0634117 0.0658984 
306 1 -0.0702985 0.0548224 0.0267622 0.0930784 
3093 1 -0.208966 0.0326431 -0.230523 0.312847 
2745 1 -0.0675322 0.023466 -0.0378871 0.0809116 
355 1 -0.231837 -0.0188628 -0.0331421 0.234952 
3097 1 0.00887117 -0.0644171 -0.313764 0.320431 
3392 1 0.1904 -0.0850852 -0.00873071 0.208729 
228 1 -0.241742 0.0633131 -0.116071 0.275537 
3324 1 -0.172356 0.0553337 -0.0915313 0.202846 
951 1 -0.14255 -0.0891427 -0.077816 0.185263 
2737 1 -0.302893 -0.19504 -0.092739 0.372002 
2959 1 -0.0826285 0.00541771 -0.175822 0.194345 
4284 2 -0.362087 -0.0444253 -0.0215335 0.365437 
4225 2 -0.253019 0.367359 -0.187175 0.483742 
3483 2 -0.0811812 0.0421382 0.00384331 0.0915466 
3266 1 0.0757538 0.135376 -0.240795 0.286439 
4014 2 -0.0804272 -0.0184439 0.0430609 0.093075 
353 1 -0.00399696 -0.116031 -0.0913904 0.147754 
601 1 0.0953177 0.147409 -0.0794619 0.192689 
3617 2 -0.0522246 -0.131453 -0.0301202 0.144619 
206 1 -0.0492753 -0.0942508 0.0160992 0.107566 
71 1 0.0575288 -0.0726779 -0.00149395 0.0927032 
4185 2 -0.0704063 -0.00915651 0.0628768 0.0948387 
716 1 0.331563 0.0696495 -0.128484 0.362344 
1354 1 -0.170837 -0.295766 0.155784 0.375409 
3676 2 0.0832301 -0.0667181 0.208145 0.233887 
771 1 -0.192657 0.13551 -0.0358811 0.238259 
1324 1 -0.0472377 0.0320102 -0.0244305 0.0620718 
4239 2 0.410937 1.18746 -0.383981 1.31391 
3561 2 -0.0232545 0.134764 0.00285248 0.136785 
388 1 0.0217948 0.0894044 0.168545 0.192031 
1313 1 0.0478305 0.0534023 0.139889 0.15719 
444 1 -0.0132596 -0.0430252 -0.0661645 0.0800295 
3668 2 0.0110406 0.0810155 0.119382 0.144698 
838 1 -0.0838415 -5.16432e-05 0.0809556 0.116547 
460 1 -0.0600935 -0.00997413 0.105202 0.121565 
499 1 -0.000852957 -0.0611668 0.125394 0.139519 
3548 2 -0.609404 -0.297117 -0.0648403 0.681069 
291 1 0.126178 -0.00430193 -0.00783548 0.126494 
221 1 -0.0708383 0.202087 -0.182516 0.28137 
482 1 -0.0091254 -0.041591 -0.00273668 0.0426682 
1314 1 -0.00521173 0.0310798 0.144786 0.148176 
3672 2 0.0709023 0.0248353 0.054458 0.092788 
375 1 -0.0770786 -0.138985 -0.0950448 0.185179 
94 1 0.104386 -0.196564 -0.0487319 0.227835 
37 1 -0.0158715 -0.113014 0.14964 0.188191 
3281 1 -0.0388848 -0.0423884 0.0632774 0.0855151 
3301 1 -0.10667 -0.00472255 -0.0809196 0.133973 
1212 1 -0.0830469 0.00217159 0.0628806 0.10419 
155 1 -0.149149 0.111735 -0.168506 0.251246 
4309 2 -0.127503 0.030954 0.0196626 0.132672 
392 1 -0.0178876 -0.0337475 -0.0684692 0.0784021 
436 1 -0.0347806 0.0994014 -0.100528 0.145589 
792 1 -0.217158 -0.145116 -0.0173682 0.261759 
3293 1 -0.151985 0.0339965 -0.0155614 0.156517 
901 1 -0.124823 -0.14209 -0.145494 0.238619 
626 1 0.0554551 -0.0643293 0.0794772 0.116319 
3180 1 -0.220121 -0.530107 0.109422 0.584329 
3631 2 0.147819 0.0615262 -0.0106062 0.160463 
3350 1 0.0389787 0.160444 0.0543192 0.173817 
318 1 0.0320013 -0.0418457 0.0328704 0.0620935 
2861 1 -0.0507738 -0.020291 -0.0701168 0.0889161 
3320 1 -0.0745 -0.17034 0.137283 0.231111 
3314 1 0.12793 -0.253701 0.27128 0.39284 
4257 2 0.502182 0.541405 -0.0624223 0.741082 
3380 1 -0.00833286 0.0958722 -0.0426165 0.105248 
3095 1 -0.40981 0.325759 -0.124457 0.538102 
614 1 0.0628972 0.153032 -0.0595399 0.17584 
2961 1 -0.101287 -0.144349 -0.261398 0.315317 
3321 1 0.0417119 -0.155449 -0.015212 0.161666 
1449 1 -0.0603437 -0.116251 -0.00386556 0.131037 
3150 1 -0.331753 0.34302 -0.0847483 0.48467 
763 1 0.136404 -0.0367156 0.194831 0.240652 
3664 2 -0.0845905 0.0374022 -0.00459991 0.0926047 
3337 1 -0.0191947 0.0743819 -0.00352403 0.0768994 
4116 2 0.0300049 -0.206372 -0.0286166 0.210496 
772 1 -0.0852635 -0.103582 0.0331186 0.138188 
1389 1 -0.454931 -0.274002 0.037778 0.532416 
4264 2 0.046559 0.130574 -0.0444523 0.145579 
4271 2 -0.0831467 0.0536562 0.13401 0.166586 
1172 1 0.162345 -0.118254 0.0116953 0.201188 
652 1 0.209041 -0.0667979 0.0353864 0.222289 
3568 2 0.0775992 -0.0445489 0.0855668 0.123806 
3433 1 0.169594 0.0079378 -0.0157017 0.170504 
3560 2 0.113534 -0.00423359 0.0101841 0.114069 
3378 1 0.120042 0.21198 0.0864809 0.258505 
917 1 0.027562 -0.121885 0.0239645 0.127239 
4098 2 -0.0304935 0.00968548 0.285565 0.287352 
3419 1 -0.028786 0.064481 0.137102 0.154219 
325 1 0.00225464 0.0198783 0.186981 0.188049 
292 1 0.127274 0.0483016 0.0902648 0.163338 
3444 1 0.0756947 0.0431235 -0.0461684 0.0985943 
908 1 0.0877514 -0.196767 -0.0393369 0.219009 
3504 2 0.17264 -0.0530668 0.167224 0.246139 
423 1 0.128807 -0.015614 0.075062 0.149897 
502 1 0.0928447 -0.0463071 0.144199 0.177646 
3435 1 -0.0516679 -0.0836341 0.103073 0.142437 
3094 1 0.042846 0.0554449 0.134882 0.151997 
3331 1 -0.158282 0.0442174 -0.133423 0.211684 
4182 2 -0.111371 -0.254228 -0.0169486 0.278069 
874 1 -0.0491504 -0.258435 0.210433 0.336878 
980 1 -0.171798 -0.103031 0.178447 0.268279 
225 1 -0.272209 -0.371823 0.0935909 0.470222 
439 1 0.0269903 -0.0156284 0.075354 0.0815534 
810 1 0.0683602 -0.0774904 -0.000144249 0.103334 
248 1 0.10201 -0.00924518 -0.0198333 0.10433 
1254 1 -0.0404374 -0.161862 -0.0370941 0.170911 
349 1 0.0691806 -0.0405131 -0.0413246 0.0901942 
4280 2 0.110103 -0.0986975 -0.09352 0.174956 
416 1 -0.0896804 -0.0935063 0.0785154 0.151495 
365 1 0.0191096 -0.106455 -0.0168485 0.109461 
3799 2 -0.13162 -0.0275465 -0.0648499 0.149292 
2819 1 -0.0903471 -0.0461228 -0.0271773 0.105017 
382 1 -0.00589586 0.0291403 -0.0804029 0.0857236 
187 1 -0.146038 0.134608 0.200973 0.282554 
490 1 -0.0745183 0.0700786 -0.27572 0.294084 
2776 1 -0.076128 0.18619 0.21576 0.294982 
699 1 -0.00481467 0.335549 0.0913641 0.347799 
2973 1 -0.159194 0.0635115 -0.0857536 0.191651 
957 1 0.0522591 -0.000348345 -0.174487 0.182145 
795 1 0.0209827 0.196577 -0.014933 0.198257 
307 1 -0.237131 0.0768388 -0.040273 0.252502 
4256 2 -0.275463 -0.233034 0.0266155 0.361791 
4285 2 -0.112696 0.102043 -0.539907 0.560903 
107 1 -0.393581 0.0212764 -0.117591 0.411323 
496 1 0.175127 0.165831 0.127891 0.272994 
2993 1 -0.232796 0.119648 -0.0588634 0.268281 
517 1 0.206949 -0.0960183 -0.0193201 0.228956 
279 1 -0.087027 0.408573 0.0602897 0.422066 
433 1 -0.0715608 0.0465687 -0.156419 0.178203 
402 1 0.109748 0.0775751 0.0590526 0.146798 
3383 1 0.107878 -0.0705164 0.0719432 0.147601 
4143 2 -0.139155 0.00486511 -0.0733434 0.157376 
3322 1 0.10949 0.101101 0.0817337 0.16997 
3863 2 -0.010203 -0.171356 0.0581549 0.181242 
274 1 0.0441089 -0.0172787 0.0521023 0.0704187 
1091 1 0.0884337 -0.0774172 0.0934757 0.150172 
3396 1 0.0123056 0.00687736 0.0526833 0.0545368 
329 1 -0.174382 -0.0573771 0.0119771 0.18397 
4028 2 -0.161913 0.145332 0.126364 0.251605 
2545 1 -0.125035 0.0507044 -0.0852472 0.159599 
3327 1 -0.0767933 -0.0548788 0.016063 0.095744 
3674 2 -0.1193 0.159316 0.15778 0.253986 
1418 1 0.159913 -0.125445 -0.134661 0.243808 
443 1 -0.211587 0.0202226 -0.0627158 0.221611 
855 1 -0.0422863 -0.0867692 -0.101208 0.139858 
647 1 0.0794261 0.19419 0.119741 0.24157 
4307 2 -0.0506405 0.00172365 -0.0608361 0.0791737 
2869 1 -0.237957 -0.186001 0.0300053 0.303513 
3476 2 0.00337074 -0.0950887 0.110653 0.145936 
177 1 0.0217275 -0.0623389 -0.00981878 0.066743 
363 1 -0.0461744 -0.303191 -0.173975 0.352597 
1450 1 -0.0569842 -0.111945 -0.0728597 0.145215 
3559 2 -0.0326881 -0.0561287 -0.0227463 0.0688211 
347 1 0.00462356 -0.0105584 0.0279599 0.0302426 
319 1 -0.0838739 -0.190089 -0.129948 0.245061 
4237 2 0.012869 -0.135138 -0.168695 0.216531 
875 1 0.0631967 -0.146291 0.0265598 0.161556 
295 1 -0.0831841 -0.177928 -0.218255 0.293621 
830 1 -0.207778 -0.0243161 -0.0610571 0.217924 
937 1 -0.0265125 0.0237762 -0.0627236 0.0721282 
268 1 0.00660954 -0.0657539 0.0910384 0.112496 
854 1 -0.0358747 0.0499526 -0.147344 0.159664 
442 1 -0.247209 -0.121584 -0.0376109 0.278046 
314 1 -0.236785 -0.0759565 -0.0530087 0.254256 
783 1 -0.301837 -0.118253 -0.305648 0.445544 
3291 1 0.133004 -0.165229 0.0817311 0.227312 
3070 1 0.0542959 0.0653986 -0.00901974 0.0854773 
899 1 -0.0270615 -0.142256 -0.0865023 0.168676 
474 1 -0.116025 0.104871 -0.245207 0.290837 
964 1 -0.0743185 -0.0179873 -0.253762 0.265032 
793 1 -0.0193714 0.00131898 -0.0767481 0.0791661 
3397 1 -0.186557 -0.158516 -0.247476 0.348102 
822 1 0.0204696 -0.146715 0.168935 0.224685 
3278 1 0.0355847 -0.191123 -0.0664813 0.205461 
1337 1 0.00673905 -0.0252113 -0.0217896 0.0339973 
3544 2 -0.0948468 -0.0101478 0.1331 0.163752 
1430 1 -0.0212541 -0.132825 0.0897239 0.161693 
3200 1 0.0151918 0.0423336 0.0394422 0.0598215 
757 1 -0.0255385 -0.0699566 -0.0266048 0.0790819 
419 1 0.235652 -0.315732 0.485264 0.62506 
3678 2 -0.024819 0.176472 0.0709377 0.191808 
3192 1 0.150465 -0.00579401 -0.447143 0.471816 
2884 1 -0.0175624 -0.121811 -0.0734166 0.143305 
85 1 0.155341 0.211368 0.0674796 0.270852 
3240 1 0.00756381 0.183755 0.0995008 0.209102 
113 1 0.0446581 -0.00614003 0.129576 0.137193 
504 1 0.0197434 0.118729 0.108491 0.162039 
1289 1 -0.0800689 -0.00163352 0.0555138 0.0974447 
2795 1 -0.086624 -0.0610742 0.166233 0.197148 
581 1 -0.131347 -0.0184156 -0.00475375 0.132717 
3541 2 0.0644639 -0.0108815 -0.0169133 0.0675283 
786 1 0.131615 -0.0528931 -0.0230862 0.143712 
800 1 0.154915 -0.209428 -0.0069565 0.26059 
367 1 0.295951 -0.000774178 0.0675387 0.30356 
2687 1 0.0124025 -0.0509073 0.018108 0.0554371 
3545 2 0.035058 -0.0290864 -0.172773 0.178678 
491 1 -0.133472 0.156513 0.0424229 0.210026 
31 1 -0.129615 -0.0861039 -0.217857 0.267723 
3434 1 -0.032122 -0.0636945 -0.0868582 0.112397 
2814 1 0.0119724 0.0641958 0.0385844 0.0758498 
1723 1 0.0779618 -0.096025 -0.0777845 0.146114 
3264 1 0.0891937 -0.021154 -0.0615463 0.110413 
440 1 -0.159105 0.00442136 0.0195294 0.160361 
431 1 -0.130172 0.0336061 0.0890703 0.161269 
501 1 -0.129424 -0.19642 0.0300954 0.237143 
3234 1 -0.183313 -0.0318082 -0.149136 0.238446 
968 1 -0.127624 -0.166346 -0.0565616 0.217159 
421 1 -0.385449 -0.00979367 -0.015235 0.385874 
801 1 -0.132307 -0.267601 -0.191993 0.354932 
2656 1 -0.235096 0.0423937 0.0474421 0.243553 
3339 1 -0.198974 0.0327216 -0.239865 0.313364 
461 1 -0.239074 0.141665 -0.228995 0.360089 
4152 2 -0.343538 0.288856 -0.172101 0.480703 
3535 2 0.00889933 0.116349 -0.0240847 0.119149 
505 1 -0.272604 -0.0798361 0.0243904 0.285099 
3436 1 -0.0463071 -0.133562 0.0363595 0.145963 
486 1 0.0466495 0.190766 -0.203569 0.282857 
3371 1 0.0253992 -0.0199293 -0.27389 0.275786 
840 1 -0.178571 0.0174292 -0.259046 0.315113 
308 1 -0.0812045 -0.208549 -0.257015 0.340799 
1304 1 0.255261 0.0308005 0.0897385 0.272323 
781 1 -0.0477717 -0.211059 0.105284 0.240651 
3312 1 -0.0502328 0.0621316 -0.0762327 0.110431 
3482 2 -0.197916 -0.196525 -0.155012 0.319095 
128 1 -0.110079 0.0895106 0.0184704 0.143076 
907 1 -0.0426981 0.125665 0.0688828 0.149532 
1641 1 0.0293444 0.152089 -0.0922304 0.180274 
891 1 -0.281347 -0.0394804 0.120178 0.308476 
737 1 0.378292 -0.102556 -0.307881 0.498411 
1934 1 0.142513 -0.00820757 0.0354824 0.147093 
683 1 -0.0177964 -0.0846094 -0.0853009 0.121457 
1535 1 0.0562571 -0.00287952 0.00980626 0.0571779 
573 1 -0.0611686 0.0808821 0.133343 0.167523 
3844 2 -0.0273566 -0.0224271 -0.0431813 0.055821 
631 1 0.129332 0.12956 0.0642137 0.194 
3600 2 0.212959 0.11407 -0.154288 0.28665 
606 1 0.0345019 0.0153187 0.191063 0.194757 
1474 1 -0.0721578 0.158664 0.201169 0.266177 
1105 1 0.11626 -0.0616134 0.0588757 0.144149 
1569 1 0.0747885 -0.107957 -0.0532994 0.141735 
63 1 0.0257458 0.0232112 0.0359333 0.049928 
577 1 -0.12211 0.0569051 0.149292 0.20109 
565 1 -0.0194641 0.130587 0.108363 0.170805 
3616 2 -0.0556554 -0.0467867 0.113188 0.134529 
3418 1 -0.050315 -0.0403473 -0.00170832 0.0645169 
4176 2 -0.0279819 0.2063 -0.0064736 0.20829 
2057 1 -0.0235795 -0.086918 0.146759 0.172189 
69 1 -0.0478605 0.0887362 0.26104 0.279833 