ITEM: TIMESTEP
880
ITEM: NUMBER OF ATOMS
4320
ITEM: BOX BOUNDS pp pp pp
0.0000000000000000e+00 1.9309999999999999e+01
0.0000000000000000e+00 1.9309999999999999e+01
0.0000000000000000e+00 9.6549999999999994e+00
ITEM: ATOMS id type c_displacement[1] c_displacement[2] c_displacement[3] c_displacement[4] 
3196 1 0.0377683 0.0434586 0.109817 0.123996 
381 1 0.0471571 0.0563455 -0.0140848 0.074813 
327 1 -0.00488127 0.0049581 -0.0743253 0.0746502 
484 1 -0.0651477 0.160009 -0.111513 0.205627 
728 1 0.0560131 -0.0247083 -0.178366 0.18858 
817 1 -0.0445682 -0.088804 0.0014093 0.0993703 
3006 1 0.217424 0.118308 -0.000315686 0.247528 
3679 2 -0.0358025 0.0920535 0.129842 0.16314 
59 1 -0.0113112 -0.0345179 0.0824615 0.0901073 
2945 1 -0.0556507 0.166345 0.0443802 0.180935 
3230 1 -0.0166181 0.0600742 0.0658751 0.0906896 
3651 2 0.212412 0.126205 0.197405 0.316252 
66 1 0.0973996 0.0633151 0.0839436 0.143325 
400 1 -0.0896908 0.0939359 0.0287145 0.133015 
677 1 0.0173015 0.049816 0.0682037 0.0862132 
623 1 0.0324446 -0.0562895 -0.063118 0.0905817 
87 1 0.206472 0.160536 0.0274621 0.262977 
3199 1 0.0731209 0.00369441 -0.0555705 0.0919152 
727 1 0.235253 0.0511228 -0.0133655 0.241114 
688 1 0.0740917 0.0384326 0.198798 0.215609 
58 1 -0.00703551 -0.0520316 0.0515044 0.0735492 
3514 2 -0.00956049 0.0582478 -0.0469701 0.0754348 
18 1 0.162328 0.128478 0.213373 0.297296 
3618 2 -0.0709579 -0.0484794 0.0689743 0.110194 
190 1 0.010693 0.129435 -0.0897773 0.157885 
298 1 -0.0173389 -0.0795172 -0.0716934 0.10846 
559 1 0.139723 0.0274189 0.0110649 0.142817 
110 1 -0.0221451 -0.0640445 0.196693 0.208039 
180 1 0.118076 -0.0434191 0.109826 0.167 
106 1 -0.087466 -0.0469597 -0.0174483 0.100797 
217 1 0.0179798 -0.0799683 0.0181751 0.0839556 
775 1 -0.0536851 0.0260375 -0.128944 0.14208 
3627 2 0.0367164 0.0385988 -0.148208 0.157491 
608 1 0.00904061 -0.0458806 0.0895932 0.101063 
7 1 0.027182 -0.0307047 -0.068448 0.0797921 
3118 1 0.0727637 0.100163 0.0175318 0.125038 
562 1 -0.000532238 -0.104725 -0.0798528 0.131697 
70 1 0.11285 0.0903562 0.0107764 0.144967 
121 1 0.0436964 0.0649734 0.027006 0.0828266 
1118 1 -0.00636978 -0.165979 -0.0912313 0.189506 
210 1 0.112701 0.0223312 0.12118 0.166987 
232 1 -0.135843 -0.0250663 0.0822675 0.160778 
4214 2 0.260043 -0.101131 0.103691 0.29766 
4170 2 0.00288964 0.0375365 -0.0122198 0.0395811 
65 1 0.0706341 -0.0465361 -0.0349294 0.0915142 
226 1 0.296887 0.00454455 0.222061 0.370774 
532 1 0.0546123 0.0367112 0.0465104 0.0805819 
3578 2 -0.0018117 0.02168 0.0631771 0.066818 
473 1 0.0954033 -0.116905 0.0371557 0.1554 
246 1 0.140803 -0.0441694 0.0652771 0.161361 
3712 2 0.0834705 0.078945 -0.0384221 0.121144 
155 1 -0.211684 0.0998536 -0.073782 0.245407 
3460 2 0.0571142 -0.0511009 -0.0410562 0.0869422 
4071 2 0.167487 0.230253 0.343957 0.446514 
2838 1 0.242582 0.245178 -0.0127373 0.345138 
536 1 0.0358595 0.0783331 0.03515 0.0930457 
894 1 -0.130725 -0.0446604 -0.0235087 0.14013 
289 1 -0.01271 -0.0670203 -0.0518337 0.0856738 
351 1 -0.0601965 0.0752576 0.0703817 0.119335 
197 1 -0.0504587 -0.0332279 -0.157636 0.168817 
3135 1 0.0435721 0.207467 0.0237628 0.213321 
303 1 -0.0534205 0.047079 0.0429201 0.0831403 
1415 1 0.139867 -0.0283579 0.182343 0.231551 
527 1 -0.0259833 -0.00605084 0.176067 0.178077 
3002 1 0.0739292 0.0312585 0.235552 0.248852 
3189 1 0.0100169 0.0511214 0.0505611 0.0725959 
712 1 0.0183036 -0.0609541 0.217816 0.226923 
718 1 0.0598868 0.088155 -0.00683755 0.106792 
3469 2 -0.0907556 0.0463719 -0.054635 0.115637 
4177 2 0.165168 -0.511403 0.169041 0.563372 
93 1 -0.152352 -0.00527245 0.146438 0.211384 
569 1 -0.105214 -0.118407 0.101093 0.187909 
639 1 -0.109023 0.0811367 0.0546676 0.146485 
21 1 -0.109205 -0.0726352 0.285005 0.313735 
96 1 0.0451989 0.177774 0.081101 0.200559 
3353 1 -0.146585 -0.0269983 -0.00918918 0.149334 
823 1 0.0364814 -0.0144149 0.0719149 0.0819172 
2596 1 -0.0841824 -0.277841 0.0500892 0.294604 
50 1 -0.0264927 -0.0989217 0.0854561 0.13338 
2495 1 0.0528021 0.129714 0.0356159 0.144507 
28 1 -0.102501 0.12223 0.00249877 0.159539 
3055 1 0.0916785 0.0561991 0.0310511 0.111926 
12 1 0.0985143 0.0734055 0.00351668 0.122906 
3346 1 0.0744556 0.0587201 0.0675658 0.116434 
738 1 0.155063 0.0711606 -0.0133983 0.171137 
2453 1 -0.0462991 -0.00441288 0.304579 0.30811 
3167 1 0.0467635 -0.0364921 0.0609954 0.085082 
339 1 -0.0336303 0.140105 0.0288106 0.146937 
988 1 0.0726628 0.0500037 0.0376015 0.095886 
737 1 0.0887589 0.0850813 0.109958 0.164948 
2939 1 -0.09511 0.0407725 0.205565 0.230142 
390 1 0.239167 0.133161 0.11923 0.298577 
203 1 -0.0534794 0.0574076 -0.0539145 0.0951969 
3582 2 0.0531604 0.357767 -0.0387666 0.363766 
3632 2 0.0958153 0.181869 -0.0611124 0.214457 
231 1 0.114289 0.0830426 0.0695576 0.157468 
323 1 0.128759 0.192358 -0.0575168 0.238514 
3244 1 0.197833 0.14457 -0.0694415 0.254677 
118 1 0.102872 0.0755479 -0.0155831 0.128581 
2735 1 0.0342907 0.0849923 0.0420788 0.100847 
2768 1 -0.0387307 0.0345298 0.0523682 0.0737211 
2960 1 -0.045012 -0.142249 0.0865374 0.172481 
29 1 0.043935 0.0233593 0.0231902 0.0548974 
753 1 0.0410658 -0.111832 0.0803349 0.143688 
3467 2 -0.0269731 -0.0690191 0.0164082 0.0758974 
4289 2 0.045969 0.0923243 0.0281555 0.10691 
2936 1 -0.062102 0.243526 -0.0799373 0.263726 
3478 2 0.14647 0.0398489 0.0868262 0.174872 
725 1 -0.122093 0.0830209 0.0282184 0.150318 
3877 2 0.0254515 0.0797121 0.00457439 0.0838017 
3611 2 0.0854655 -0.0949936 -0.0645087 0.143142 
4187 2 0.0101505 -0.160164 0.0715794 0.175724 
437 1 0.0232236 0.0823217 -0.00374098 0.0856165 
53 1 0.14052 0.0610162 -0.0168723 0.154121 
593 1 -0.0765859 0.133022 0.184473 0.23998 
609 1 0.0911208 -0.160501 0.0915065 0.206002 
3040 1 0.0405757 -0.0176936 0.104282 0.113288 
546 1 -0.0467974 -0.000966217 0.106826 0.116631 
167 1 -0.0270168 0.116065 0.0503488 0.129367 
261 1 0.123814 -0.12144 0.00926795 0.173676 
610 1 0.133584 0.0410855 0.106092 0.175465 
247 1 0.0255899 -0.0488384 0.162059 0.171182 
89 1 -0.0804343 -0.0820788 0.103439 0.154617 
3149 1 0.0918277 0.107585 0.203408 0.247753 
550 1 -0.133047 -0.06588 0.175047 0.229528 
147 1 -0.0550926 0.148423 0.305081 0.343713 
3554 2 -0.036224 0.0863232 0.0547708 0.108461 
3786 2 -0.180592 0.203017 0.059228 0.278096 
5 1 -0.0327919 0.0787554 0.122447 0.149235 
2591 1 -0.0474157 0.114865 0.0307773 0.128021 
3232 1 0.0360969 0.0705197 -0.00480023 0.0793666 
1215 1 0.0697492 -0.0262936 -0.00953408 0.0751479 
859 1 0.130127 0.142065 0.0171188 0.193412 
3152 1 -0.134769 -0.117962 0.113428 0.211999 
594 1 0.0768789 0.285964 0.00560841 0.296171 
221 1 -0.0198886 0.0860417 0.0106034 0.0889447 
2461 1 -0.00292855 -0.00340194 -0.0943764 0.0944831 
23 1 0.0152103 0.0244892 -0.0304542 0.0419349 
3743 2 0.0374243 0.00501327 0.0362196 0.0523218 
3023 1 -0.049324 0.118889 -0.0450692 0.136377 
151 1 0.0191755 -0.11307 0.0219544 0.116767 
43 1 0.00645367 -0.0105498 -0.0766251 0.0776167 
3730 2 0.0135763 0.188762 -0.0478354 0.195201 
424 1 0.136441 0.0465725 -0.108102 0.180197 
389 1 0.257267 -0.289001 0.0163379 0.387266 
3586 2 0.0751395 0.0139213 -0.00144137 0.0764318 
903 1 0.122803 0.306018 0.295333 0.442662 
3251 1 -0.0761906 -0.0754701 -0.0402581 0.114549 
3608 2 0.0275082 0.103146 -0.0657136 0.125356 
2684 1 -0.160691 0.0495175 0.151445 0.226295 
2500 1 0.0650072 -0.0161036 -0.0121714 0.0680691 
3188 1 0.0892368 0.179397 0.0808399 0.216059 
3491 2 0.0293136 0.162319 -0.0359813 0.168823 
717 1 -0.0513003 0.00206444 0.135443 0.144847 
2931 1 -0.154756 -0.0439718 0.0188249 0.161979 
691 1 -0.0583075 -0.0237558 -0.0207014 0.0662771 
215 1 0.0263342 -0.0494192 -0.0595368 0.0817336 
174 1 0.049274 -0.0455922 0.0910968 0.11316 
3493 2 0.0547758 0.0658475 0.22445 0.240238 
3634 2 0.144314 0.119637 0.00886858 0.187665 
2994 1 -0.0203448 -0.116826 0.0870482 0.147104 
529 1 0.0819855 -0.151571 0.031461 0.175172 
1480 1 0.138834 -0.045359 0.18392 0.234859 
2968 1 0.0501369 0.113768 0.118335 0.171639 
3464 2 -0.00149444 -0.0159231 0.0167282 0.0231433 
98 1 0.153267 -0.205489 0.182204 0.314507 
216 1 0.259722 0.102898 0.018948 0.280005 
40 1 0.029451 -0.0144001 0.170267 0.173394 
1130 1 -0.0020179 -0.0531409 0.103299 0.116184 
1102 1 0.053635 0.1612 0.00985445 0.170174 
3041 1 0.146091 -0.0942612 -0.0510174 0.181192 
604 1 -0.0573825 -0.0364162 0.140168 0.155775 
721 1 -0.306345 -0.0684978 -0.00456768 0.313943 
3164 1 0.0665673 0.207073 0.103645 0.240941 
1179 1 0.144372 0.0931272 -0.128221 0.214374 
103 1 -0.0817749 0.151952 -0.0369566 0.176472 
64 1 -0.102462 -0.0133298 -0.159435 0.189988 
193 1 0.00387644 0.185716 -0.0705881 0.198716 
44 1 -0.0314736 -0.0797567 0.0554539 0.102112 
2996 1 -0.0578951 -0.00137618 -0.196963 0.2053 
4212 2 -0.141321 0.264885 -0.0143712 0.30057 
3279 1 -0.0596812 0.104482 -0.0690025 0.138707 
1133 1 0.152272 0.0761979 0.0414138 0.175237 
178 1 -0.0168092 0.0330195 -0.191403 0.194956 
330 1 0.024224 0.128244 0.00565596 0.130634 
233 1 0.14893 -0.00921156 0.19888 0.248633 
1991 1 0.0961251 0.106385 0.0220451 0.145065 
600 1 -0.101615 0.024581 0.043646 0.113291 
338 1 -0.127467 0.0806348 0.0126777 0.151362 
4101 2 -0.0982683 -0.00848465 0.0904813 0.133849 
949 1 -0.0488997 0.0672026 0.0695294 0.108359 
3447 1 0.130617 -0.0885231 0.0147949 0.15848 
2995 1 0.0724008 -0.0756376 -0.0959741 0.142035 
4217 2 -0.179298 0.0300235 0.158522 0.241202 
479 1 -0.0977685 0.0617522 0.150081 0.189463 
3335 1 -0.083452 -0.0481597 -0.0562431 0.111566 
1457 1 -0.0671299 -0.0287129 0.0661952 0.0985529 
3037 1 -0.0215651 0.115625 -0.0337644 0.122369 
4253 2 0.0781655 0.0347025 -0.204872 0.222006 
387 1 -0.0161401 -0.0420151 -0.00124311 0.0450257 
3736 2 -0.0950028 0.143886 0.0739151 0.187595 
3394 1 -0.0150169 -0.0314712 -0.0980134 0.104032 
508 1 -0.018102 -0.0506571 0.0964019 0.110395 
3537 2 0.0662058 -0.0012163 0.0502641 0.0831335 
747 1 0.0327123 0.0859523 -0.0201066 0.0941391 
497 1 0.0185901 -0.0634723 0.0125359 0.0673162 
958 1 -0.0372428 -0.136935 0.0821809 0.163988 
3130 1 -0.0501462 -0.0168607 0.00647985 0.0533002 
4163 2 -0.0374195 0.00217604 0.159288 0.163638 
3643 2 0.0043941 -0.0968178 0.0539259 0.11091 
133 1 -0.018428 0.0241763 0.116747 0.12064 
4204 2 0.0424391 0.00786266 0.106199 0.114635 
86 1 0.155139 0.0312433 0.0562686 0.16796 
759 1 0.0352549 0.0274419 0.0941589 0.10422 
3411 1 0.0709634 0.00538026 0.0434271 0.0833707 
835 1 0.0194368 -0.00740951 0.128251 0.129927 
3057 1 -0.00688732 -0.0143749 0.0341969 0.0377293 
3620 2 0.0461316 -0.0676355 0.0782948 0.113282 
241 1 -0.20835 0.0996213 0.0634745 0.239506 
704 1 0.147334 -0.0749802 0.0308161 0.168164 
3599 2 -0.329149 0.255409 -0.150608 0.443007 
157 1 -0.00984232 -0.0184643 -0.0140476 0.0252019 
54 1 0.0650977 -0.221913 0.0837824 0.245973 
493 1 -0.184825 0.309817 -0.1969 0.410994 
204 1 -0.0886957 0.0411331 -0.0738176 0.122507 
254 1 0.0239905 0.172719 -0.257195 0.310736 
67 1 0.04432 -0.193789 -0.0578101 0.207028 
2988 1 -0.171464 0.238773 -0.168929 0.339042 
3030 1 -0.348419 0.218329 -0.140958 0.434664 
4050 2 0.0965055 0.205801 0.0443921 0.231599 
3479 2 -0.0926156 0.342545 0.0352679 0.356593 
674 1 0.0168341 -0.0546314 0.023846 0.0619404 
2004 1 -0.231259 -0.0281355 -0.133572 0.26854 
4228 2 0.0512429 -0.165044 0.0423791 0.177937 
3216 1 -0.142456 0.0342948 0.0976802 0.1761 
234 1 -0.0495639 -0.0713567 -0.0688961 0.110883 
1036 1 0.012507 -0.0787114 0.00431847 0.0798158 
3369 1 -0.0546943 7.55979e-05 0.154492 0.163888 
3607 2 -0.190893 -0.10644 0.22887 0.316467 
3139 1 -0.00178771 -0.0274863 0.125869 0.128848 
644 1 -0.296886 -0.0497766 0.0347467 0.303028 
1278 1 0.0817961 0.0509241 0.049075 0.108131 
4269 2 -0.0662955 0.140783 0.0791321 0.174576 
3007 1 -0.0677615 0.148706 0.0321429 0.166548 
354 1 0.123634 0.0502337 0.067068 0.149355 
4089 2 0.0189066 0.175974 0.0645368 0.188386 
214 1 -0.040914 0.0442692 0.0374601 0.0709716 
640 1 -0.204557 0.011585 0.0899295 0.223752 
199 1 -0.0667074 -0.0296737 0.0661875 0.0985453 
245 1 -0.067167 -0.141043 0.149214 0.216031 
2758 1 -0.25386 0.236353 0.16279 0.383156 
3056 1 -0.27573 -0.0196861 0.117209 0.300254 
3468 2 -0.239111 -0.0389784 0.0353392 0.244831 
563 1 -0.120676 0.150448 -0.0507082 0.199421 
2977 1 0.0200387 0.144536 0.0174458 0.146957 
1149 1 0.106046 -0.0340953 0.0251118 0.114188 
3916 2 -0.0854124 0.0105409 0.200101 0.217823 
249 1 -0.0591459 0.0502863 0.0187328 0.0798615 
3096 1 -0.0401903 0.083181 0.0979478 0.134641 
240 1 -0.0629718 0.0597843 0.102559 0.13438 
181 1 -0.00556715 0.00948668 0.0996708 0.100276 
46 1 0.0179143 -0.00907443 0.123763 0.125381 
3211 1 0.0382429 -0.00943852 0.102006 0.109347 
140 1 0.180451 -0.0772145 0.0597427 0.205168 
95 1 -0.098862 -0.118654 0.0555076 0.164114 
4098 2 -0.0236504 0.158718 0.111502 0.195406 
3512 2 0.00459287 0.0653969 0.0463619 0.080295 
3603 2 -0.0459681 -0.119673 -0.0169717 0.129316 
3701 2 0.106111 0.119211 0.120666 0.200078 
3513 2 -0.0705877 -0.0451695 0.0431466 0.0942578 
312 1 0.0128513 -0.0642708 0.0438011 0.0788317 
587 1 0.0660513 0.0925763 0.0233132 0.116089 
134 1 0.0658524 0.0919614 0.00846397 0.113424 
135 1 -0.120771 -0.111284 -0.177843 0.24207 
3003 1 0.0249091 0.0871496 0.158401 0.182501 
191 1 0.17627 0.174998 -0.0400123 0.251588 
685 1 0.0483591 -0.0685605 -0.0200112 0.0862531 
602 1 -0.0972059 -0.00536607 -0.0350913 0.103485 
195 1 0.110365 0.0603381 0.0422756 0.132697 
3092 1 0.0521361 -0.00479013 0.0764122 0.092628 
4195 2 -0.0233748 -0.174853 -0.175827 0.249068 
80 1 -0.134614 0.024772 0.0528539 0.146725 
540 1 -0.181254 0.234325 -0.283561 0.410083 
2981 1 -0.0264612 0.00345698 0.128384 0.131128 
427 1 -0.0207107 -0.16483 -0.169707 0.237483 
4173 2 -0.0464431 -0.0128677 0.0275637 0.0555184 
2950 1 0.0489317 -0.165685 -0.0310269 0.175523 
6 1 -0.166184 0.0778839 -0.0271258 0.185523 
182 1 0.0303672 -0.178034 -0.211134 0.277841 
690 1 -0.0435217 -0.121704 0.0459536 0.137178 
3408 1 -0.111805 0.194652 0.147757 0.268741 
902 1 0.0789533 -0.106434 0.0629244 0.146701 
154 1 -0.13529 0.10003 -0.0320609 0.171281 
710 1 -0.15471 -0.111622 -0.200177 0.276524 
3115 1 -0.210169 0.0543523 0.15399 0.266155 
742 1 -0.0886849 -0.0217826 -0.111887 0.144424 
2926 1 -0.164515 -0.0317703 0.0778412 0.184754 
446 1 -0.0463991 0.0165451 0.0722811 0.087471 
580 1 -0.0623933 0.00571669 0.3602 0.365608 
3518 2 -0.15518 0.205018 0.120718 0.284053 
825 1 0.0870396 -0.0393686 0.187844 0.210739 
3841 2 -0.0452078 -0.192626 0.0896263 0.217213 
2934 1 0.0021771 0.0116465 0.0674209 0.068454 
78 1 0.0354907 0.0762649 0.0200354 0.0864716 
3644 2 0.00807222 -0.107462 -0.0704329 0.12874 
920 1 0.0433443 0.00757019 -0.0536436 0.0693806 
235 1 -0.195061 -0.0523436 0.0727426 0.214663 
205 1 -0.177337 0.138973 0.0259751 0.226796 
694 1 -0.0926188 0.193122 0.0537817 0.220832 
861 1 0.0602686 0.0595491 -0.170832 0.190688 
3549 2 0.0654821 0.0169236 -0.262313 0.270892 
4014 2 -0.0517514 0.0606162 0.043774 0.0909324 
3401 1 -0.0430524 0.157789 0.081452 0.182717 
3808 2 0.0693836 0.0167309 0.0847311 0.110785 
614 1 0.164046 -0.00577601 0.162013 0.230635 
3341 1 -0.0621251 0.170935 -0.051842 0.189119 
512 1 0.309533 0.116115 0.107012 0.347484 
300 1 -0.046843 0.0316145 0.039085 0.0687123 
393 1 0.0315199 0.110164 0.0500217 0.125027 
2740 1 -0.0812769 0.238083 0.0589767 0.258395 
4257 2 0.227494 0.395918 -0.277071 0.53411 
4006 2 -0.308875 -0.260092 0.285809 0.49471 
286 1 -0.0971848 -0.0788517 0.0336927 0.129606 
886 1 0.271015 0.139875 0.0663223 0.31211 
277 1 -0.257995 0.0305622 -0.0197377 0.260548 
364 1 -0.0811352 -0.0555026 0.154463 0.183091 
1367 1 0.0451611 0.0210656 0.00114759 0.0498458 
411 1 -0.137744 0.110136 0.1173 0.211808 
3658 2 -0.0248007 0.179607 0.30409 0.35404 
356 1 0.113551 0.0114438 -0.00540885 0.114254 
1145 1 0.0662436 0.137667 0.225955 0.272756 
357 1 -0.0115432 -0.00171786 -0.118785 0.119357 
265 1 -0.0317214 0.0459692 0.0345997 0.0657005 
3389 1 0.085282 -0.0500113 -0.00285065 0.0989054 
362 1 -0.105838 0.02551 -0.0634653 0.126017 
478 1 -0.0851143 0.0745316 0.116948 0.162715 
4159 2 -0.109786 -0.0465569 -0.048641 0.128789 
2696 1 -0.132613 -0.00843667 0.114164 0.175188 
966 1 -0.0511794 0.256902 0.0461891 0.265991 
3612 2 -0.11064 0.0420641 -0.210551 0.241542 
3392 1 -0.0622345 0.00794692 0.040766 0.0748208 
780 1 -0.0587843 -0.135469 -0.0128214 0.148229 
924 1 -0.0111192 0.0358961 0.0621408 0.0726199 
2710 1 0.0802182 -0.0293342 -0.00703918 0.085703 
3313 1 -0.045603 0.0768708 0.0464726 0.10074 
433 1 -0.0138801 -0.0200741 -0.0357572 0.0432921 
553 1 -0.107867 -0.0869975 -0.100924 0.171434 
3333 1 -0.144574 -0.11807 0.033579 0.189657 
3303 1 -0.00408908 0.0110471 0.0849811 0.0857936 
3526 2 -0.172309 0.0577023 -0.000367921 0.181714 
3249 1 0.0363871 0.124286 -0.0997848 0.163487 
92 1 -0.284036 0.0461143 0.265505 0.39153 
3379 1 -0.105794 -0.0608268 -0.0138844 0.122821 
1449 1 -0.0895134 -0.065416 0.0600359 0.12608 
160 1 -0.274429 0.15293 0.0685092 0.321547 
1077 1 0.113194 0.0456002 0.120091 0.171214 
462 1 -0.0662057 -0.117922 0.0850033 0.159732 
2966 1 0.000395525 -0.0412123 -0.0360641 0.0547652 
3022 1 0.0211395 0.105418 -0.0397685 0.114636 
750 1 0.0163718 0.0157837 0.0389517 0.0451043 
3162 1 0.0902908 0.123591 -0.157125 0.219352 
449 1 0.0823521 -0.0176485 -0.0976271 0.128936 
3482 2 -0.22752 -0.151347 0.0505077 0.277889 
287 1 0.0753334 -0.102326 -0.0772604 0.148711 
3647 2 0.162989 0.0650464 0.133023 0.220208 
2890 1 0.238083 0.0376622 0.149453 0.283616 
1285 1 0.0757095 0.0115095 -0.0150189 0.0780383 
943 1 0.0146376 0.0767462 0.140922 0.161131 
3305 1 0.0782628 0.177909 0.10842 0.222557 
3209 1 0.201794 0.0354178 -0.00465969 0.204931 
3631 2 0.0883853 0.0918057 -0.191135 0.229724 
3257 1 0.248007 -0.137234 -0.139343 0.315843 
4318 2 -0.174692 -0.123607 0.0761406 0.227142 
3883 2 0.0209094 0.0850933 0.0971724 0.130846 
3531 2 -0.0292077 -0.0721563 -0.100314 0.126975 
3227 1 0.0402554 -0.202761 0.0257111 0.208311 
373 1 -0.0425516 0.108612 -0.0797838 0.141325 
4297 2 -0.0695337 0.075839 -0.0461028 0.112747 
3404 1 -0.0268679 -0.0480742 0.0277521 0.06167 
398 1 0.0645017 -0.0723796 0.0597216 0.113868 
2732 1 0.03897 -0.0434912 -0.134664 0.146781 
3221 1 -0.0567434 0.0839166 -0.0494761 0.112737 
836 1 0.0443349 -0.0767141 -0.00536081 0.0887659 
309 1 -0.0413433 0.217898 0.163512 0.275545 
394 1 0.136943 -0.0306351 0.153641 0.20808 
412 1 -0.00293436 0.0443887 0.114303 0.122655 
1212 1 -0.0652103 0.0665081 0.159854 0.185011 
3573 2 -0.222081 0.0665185 0.0767781 0.244212 
3360 1 -0.171755 -0.0147449 0.059907 0.1825 
3319 1 -0.0753106 0.0267033 0.00121111 0.0799139 
3588 2 -0.0849825 0.0538181 0.102053 0.143294 
2365 1 -0.16085 0.0551495 -0.10847 0.201693 
306 1 -0.22689 -0.0032111 -0.0017498 0.226919 
3093 1 -0.104141 0.0257255 -0.093091 0.142032 
2745 1 -0.122584 -0.0339807 -0.015074 0.128097 
355 1 -0.181732 0.0299166 0.038562 0.188171 
3097 1 -0.0198605 -0.00223447 -0.00119794 0.0200217 
3197 1 -0.141765 0.0052155 -0.107318 0.177881 
228 1 -0.140636 0.0626054 0.00847295 0.154174 
3324 1 -0.0232536 0.0848049 -0.105058 0.137003 
951 1 -0.0670773 -0.0602811 -0.117123 0.14782 
2737 1 -0.186726 0.0244875 0.01462 0.188892 
2959 1 -0.039689 0.158147 -0.00291091 0.163077 
4284 2 -0.137044 0.0307271 -0.0833116 0.163298 
4225 2 0.213944 -0.00457702 -0.027925 0.215807 
332 1 -0.180788 -0.0730765 -0.0420028 0.199471 
3290 1 0.00915404 -0.0369451 -0.0577166 0.0691371 
716 1 0.141626 -0.0319834 0.0103656 0.145562 
353 1 0.00353923 -0.0938836 0.0208742 0.0962413 
601 1 0.0235979 0.0692623 0.00514285 0.0733524 
3094 1 0.103325 -0.0246379 -0.00500537 0.10634 
3617 2 0.0882456 -0.0755583 0.011916 0.116783 
206 1 0.0288089 -0.0300806 -0.0395983 0.0574702 
71 1 0.122949 -0.0927975 -0.0163192 0.154901 
3676 2 0.0369102 -0.0242408 0.0311512 0.0540405 
3192 1 0.0489044 -0.0852358 0.0645378 0.117567 
4185 2 0.0215517 -0.13426 0.0510324 0.145239 
3483 2 -0.0412693 0.135975 0.00561816 0.142211 
763 1 0.0541406 0.0169133 0.125056 0.137318 
3561 2 0.0113834 0.0469726 0.17127 0.177959 
3409 1 0.00343644 -0.155908 -0.0911327 0.180622 
388 1 0.0523504 0.165455 0.157504 0.234357 
1313 1 0.0734176 0.0380447 0.085817 0.119173 
444 1 0.115191 0.121803 0.0258662 0.169629 
3668 2 0.166043 0.221939 0.102149 0.295401 
838 1 0.208606 0.0425701 0.0494872 0.218581 
460 1 0.105095 -0.0369582 0.13115 0.172079 
499 1 0.105912 -0.0315514 -0.0673673 0.129426 
3548 2 -0.54891 -0.105056 -0.103372 0.568353 
291 1 0.0282125 -0.0845293 -0.0661024 0.110953 
482 1 0.0617878 -0.028491 0.0336647 0.075913 
1314 1 -0.00839697 0.0694578 0.0926793 0.116122 
3672 2 0.0123247 -0.00494523 -0.0646056 0.0659563 
375 1 0.129557 -0.072993 -0.06214 0.161166 
94 1 0.127663 -0.0710161 -0.0614973 0.158503 
3281 1 0.0567323 -0.0310055 0.0356331 0.0738215 
37 1 -0.0165747 -0.0796632 0.0449052 0.0929378 
3321 1 0.0638914 -0.10473 -0.0170754 0.123863 
2961 1 0.146003 -0.0329719 -0.138593 0.20399 
3393 1 0.118102 0.0187927 -0.0640865 0.135677 
901 1 -0.0635632 -0.15178 -0.0976503 0.191345 
4309 2 -0.0674503 0.0100987 0.00854522 0.0687353 
392 1 -0.114159 -0.0834414 -0.0621314 0.154451 
436 1 0.0443814 -0.0929916 0.0280454 0.106788 
792 1 -0.189197 -0.0205632 0.13941 0.23591 
3293 1 -0.179396 0.124477 0.0300086 0.220405 
3320 1 0.00838497 -0.117103 0.178023 0.21325 
3095 1 0.0522858 0.0314649 0.00969377 0.0617885 
318 1 -0.128417 0.0608488 0.128205 0.19139 
3350 1 -0.0241352 -0.16122 0.0746821 0.179309 
3314 1 -0.0590872 0.0123226 -0.115244 0.130094 
2861 1 0.0245341 0.0218245 0.078452 0.0850467 
3180 1 -0.0899937 -0.0293844 -0.048446 0.106345 
3150 1 -0.0484084 0.125168 0.105051 0.170429 
2479 1 0.18498 0.0442568 -0.00115437 0.190204 
3664 2 0.274907 -0.0919897 0.170259 0.33619 
100 1 0.0859752 0.130238 -0.0710642 0.171475 
3301 1 -0.103757 -0.063965 -0.0722959 0.141717 
4056 2 -0.361161 -0.0211348 0.221622 0.424265 
4116 2 -0.136186 -0.14294 -0.010081 0.197687 
468 1 0.132617 0.0269463 0.185955 0.229984 
3434 1 -0.0338613 -0.0975265 0.12392 0.161289 
3678 2 -0.0495589 0.0674566 0.178918 0.19753 
4271 2 0.0312171 0.0177551 0.0347181 0.049951 
1172 1 0.0849883 -0.151882 0.00403857 0.17409 
652 1 0.140062 0.0104354 0.0793451 0.161313 
3568 2 0.0650076 -0.115632 -0.0376483 0.137891 
3433 1 0.158589 -0.0287197 -0.105464 0.192609 
3419 1 0.086337 0.0513405 0.163978 0.192298 
248 1 0.0742155 0.0287914 0.00412072 0.0797111 
3560 2 0.0595598 -0.0265984 0.0150252 0.0669373 
1304 1 0.186293 -0.0281783 0.0164046 0.189125 
208 1 -0.0658283 0.0908445 -0.0895857 0.143568 
917 1 -0.0332209 -0.0134175 -0.012349 0.0378966 
2969 1 0.113201 0.062619 0.153501 0.200744 
325 1 0.0815596 0.0179405 0.0205611 0.0860035 
292 1 0.0195619 0.041007 0.105352 0.114731 
3444 1 0.212153 -0.0597827 0.0504178 0.226108 
908 1 0.270908 -0.120606 0.0289674 0.297953 
3504 2 0.246366 0.0014481 0.0761156 0.25786 
423 1 0.163723 0.00389951 -0.0941705 0.188914 
502 1 0.0559426 0.144359 0.0680088 0.169098 
3435 1 0.0516785 0.0739416 0.224815 0.242239 
430 1 -0.150451 0.0304861 0.155629 0.218599 
439 1 0.161569 -0.00210544 0.108372 0.19456 
3331 1 0.000632146 -0.0200155 0.201619 0.202611 
4182 2 -0.243611 -0.547432 0.0134933 0.599342 
874 1 0.248815 -0.0647077 0.0751624 0.267853 
980 1 0.0571915 -0.206294 0.20596 0.297065 
810 1 0.0814879 0.10141 0.0116534 0.130614 
3312 1 0.114385 -0.100916 0.0749495 0.169957 
3383 1 -0.0290682 0.112674 0.143641 0.18486 
225 1 0.0777802 -0.056173 0.0467032 0.106707 
4280 2 0.173807 0.241799 -0.14702 0.3321 
416 1 0.0316464 -0.142056 0.0971217 0.174968 
365 1 0.140182 0.0267642 0.0771711 0.162243 
3799 2 0.193382 -0.171085 -0.180907 0.315268 
2819 1 0.0854371 -0.120354 0.181538 0.233967 
382 1 0.00204236 0.158075 0.0528305 0.166683 
404 1 0.00632007 -0.05859 0.0447887 0.0740186 
2776 1 0.0176681 0.113678 0.19122 0.223159 
2973 1 -0.205477 -0.111225 0.123819 0.26443 
957 1 0.00976093 -0.0354412 -0.0353873 0.0510256 
795 1 0.0568126 -0.0910393 0.0747206 0.130763 
490 1 0.074652 0.109735 -0.00400824 0.132781 
3266 1 0.0216685 0.0508572 0.0768317 0.0946525 
4285 2 0.0648651 0.183064 0.0799458 0.210027 
496 1 -0.242766 0.0960235 0.0689061 0.270007 
2993 1 0.0128303 0.180755 0.222473 0.286934 
4256 2 -0.141844 0.136732 0.0337474 0.199886 
471 1 -0.169626 0.144833 0.0185306 0.223814 
517 1 0.10609 0.0512535 0.111202 0.162012 
279 1 0.0477188 0.304667 0.164711 0.349612 
4264 2 0.201105 -0.0794107 0.132847 0.253767 
3420 1 0.0143801 -0.067281 -0.0469959 0.0833195 
4028 2 -0.0908238 -0.121075 0.133078 0.201539 
771 1 -0.0291084 0.0263849 0.13989 0.145302 
3322 1 -0.0153044 0.239112 0.103237 0.260896 
3863 2 -0.144629 -0.0688009 0.0900435 0.183736 
274 1 -0.174137 -0.0480542 -0.0244251 0.18229 
1091 1 -0.0561961 0.0839751 0.124191 0.160104 
3396 1 0.0318032 0.0165273 0.0296439 0.0465119 
699 1 -0.0855299 0.0724184 -0.114668 0.160339 
329 1 -0.254766 0.124389 -0.0551414 0.288823 
2545 1 -0.139078 -0.0544466 -0.0573155 0.159975 
3327 1 -0.102613 0.123021 -0.0382079 0.164692 
3674 2 -0.0801916 -0.104892 0.137971 0.190968 
1418 1 -0.0637255 0.036327 -0.0035573 0.0734387 
443 1 -0.0649785 0.0238593 -0.0742025 0.101476 
855 1 -0.0974545 0.114065 -0.290814 0.327233 
3082 1 0.0912537 0.0439933 -0.0987091 0.141443 
3476 2 -0.0204259 0.208487 0.23303 0.313348 
2869 1 0.00614325 0.0156083 -0.134453 0.135495 
4307 2 -0.0524758 -0.140299 -0.0198292 0.151098 
177 1 -0.0739945 0.210439 0.118427 0.252556 
363 1 -0.0537968 0.0875146 0.00148452 0.102738 
1450 1 -0.0914928 0.0928002 -0.00647054 0.130479 
3559 2 -0.0351662 0.0736627 0.0573583 0.0997639 
347 1 0.132922 0.147786 0.115759 0.23002 
4237 2 0.0772858 -0.0104218 -0.0501539 0.0927207 
319 1 -0.097062 0.0784975 0.111201 0.167178 
830 1 0.00229885 0.0426429 -0.00777536 0.0434069 
295 1 0.041783 -0.0452034 -0.0228395 0.0656568 
937 1 0.0328009 -0.0267116 0.0442728 0.0612331 
268 1 0.0153347 0.0990993 0.0624663 0.118143 
854 1 -0.0494919 0.143263 0.110428 0.187532 
442 1 -0.0121344 -0.0304844 -0.0820227 0.0883418 
875 1 0.138647 0.0646804 0.124114 0.197005 
501 1 0.0823356 0.0706081 0.139727 0.176885 
3378 1 0.0290567 0.172971 0.11269 0.208477 
3291 1 0.21185 -0.000937333 0.0744842 0.224564 
314 1 -0.173409 -0.0560909 0.174088 0.252039 
474 1 -0.226031 0.0785347 -0.180061 0.299466 
3070 1 0.0576966 0.0264182 0.0300641 0.0702187 
964 1 -0.265834 0.0702952 0.00599624 0.275037 
793 1 -0.249294 0.0417054 0.027632 0.254265 
3397 1 -0.224082 0.0955688 0.000302409 0.243611 
899 1 -0.0337203 -0.0392454 0.0719315 0.0886082 
1337 1 -0.0991461 0.0253856 0.133573 0.168274 
3278 1 -0.0396065 -0.109205 -0.0782713 0.140074 
3544 2 -0.0334467 -0.0945303 0.0608954 0.117315 
1430 1 -0.107707 -0.0568571 0.147785 0.191504 
3200 1 -0.0551892 0.0263047 0.177905 0.188117 
757 1 -0.068215 0.0237099 0.123167 0.142778 
822 1 0.0636719 -0.0426584 0.271791 0.28239 
483 1 -0.0336975 0.0276393 0.0796806 0.090821 
1289 1 0.0165772 0.0448877 0.148805 0.156309 
1354 1 -0.181917 0.0144131 0.208778 0.27729 
3240 1 -0.114346 -0.0318675 0.0704083 0.138014 
113 1 0.160302 0.0263301 0.0895685 0.185506 
504 1 -0.0625118 0.0777964 0.141805 0.173403 
2795 1 -0.127817 -0.024909 0.167793 0.212396 
781 1 -0.0255004 -0.0628073 0.132678 0.148991 
581 1 -0.135525 -0.0187722 0.128167 0.187473 
3541 2 -0.0451831 0.0258253 -0.0191797 0.0554646 
786 1 0.0409067 -0.0243866 0.0991666 0.110009 
800 1 0.0764893 -0.0365543 -0.048169 0.0975043 
367 1 0.142251 0.00294655 0.149998 0.206745 
2687 1 0.0340755 -0.0282566 0.0332927 0.0553894 
3545 2 0.0287092 0.0597859 -0.125103 0.141596 
491 1 0.0366708 0.0738329 0.0289135 0.0873615 
840 1 -0.16622 -0.0129821 -0.0814479 0.185557 
187 1 -0.130465 -0.0143323 0.144211 0.194996 
2814 1 -0.0437789 0.0523228 -0.013669 0.0695781 
1723 1 0.0942431 0.0452721 -0.178132 0.206549 
3264 1 0.151725 -0.0701202 0.0186238 0.168179 
440 1 -0.0475232 0.0844516 0.0778869 0.124326 
431 1 0.0406033 -0.103075 0.0816335 0.137612 
402 1 0.0970758 -0.231981 0.275469 0.372991 
968 1 -0.0406263 -0.132878 0.0994355 0.170864 
801 1 -0.141455 -0.300461 -0.0202573 0.332711 
2656 1 0.0526377 0.121883 -0.073803 0.151898 
421 1 -0.105282 -0.0978522 -0.230418 0.271573 
4152 2 -0.118835 0.236664 -0.0334665 0.26693 
461 1 -0.177734 0.265415 0.0471509 0.32289 
647 1 0.037472 0.0459736 0.139804 0.151865 
3436 1 -0.157032 0.0650474 0.194829 0.258551 
3371 1 -0.0436634 0.144488 -0.100812 0.181511 
486 1 -0.087512 0.141932 0.133576 0.213648 
308 1 -0.107257 -0.0327735 -0.065237 0.129746 
307 1 -0.0384275 -0.0286571 0.0167527 0.0507795 
85 1 0.124717 -0.07075 0.0336485 0.147282 
4143 2 -0.213107 -0.184534 0.123098 0.307605 
2873 1 -0.144118 -0.126419 0.0478808 0.197596 
2884 1 -0.108765 -0.0692301 0.0741078 0.14871 
3339 1 -0.158255 -0.0120926 0.101468 0.188379 
3487 2 0.029725 -0.0125171 -0.0255297 0.0411342 
4298 2 -0.0901233 -0.135897 0.0499613 0.170547 
1254 1 -0.0212028 0.0505664 0.0364577 0.0658459 
3380 1 0.130298 -0.125043 0.183184 0.257235 
4154 2 0.0550648 0.146466 -0.180977 0.239243 
22 1 -0.0380705 -0.0111763 0.0527709 0.066023 
3535 2 0.0967162 0.143467 -0.0210037 0.174293 
128 1 -0.0325636 0.144361 0.0165204 0.148907 
907 1 -0.0921617 -0.110267 0.0107406 0.144111 
1641 1 -0.11845 0.0276904 0.0196196 0.123216 
885 1 0.0075863 -0.124829 -0.330672 0.353531 
1300 1 0.0126886 -0.062784 -0.0383264 0.0746442 
1934 1 0.0557642 -0.0696512 -0.00361961 0.0892975 
891 1 -0.111078 -0.12542 0.0306538 0.170318 
3778 2 -0.147861 -0.0816014 -0.0128735 0.169373 
1269 1 -0.165845 -0.191261 0.157623 0.298212 
1535 1 0.0923234 -0.014293 0.0240916 0.0964796 
573 1 0.015272 -0.0183732 0.0569877 0.0617933 
3844 2 0.00462343 0.038076 -0.142895 0.147953 
631 1 0.0399149 -0.000891433 0.18048 0.184843 
606 1 -0.0151379 0.104413 0.318614 0.335627 
3600 2 0.033594 -0.0196542 -0.0402943 0.0560221 
627 1 -0.0678568 0.0354952 -0.0197001 0.079073 
1474 1 -0.0490819 0.0584643 0.203475 0.217322 
1569 1 -0.048821 -0.191415 0.000162858 0.197543 
63 1 -0.130814 0.00933801 0.0914402 0.159878 
577 1 -0.107736 -0.0226028 0.180395 0.21133 
565 1 -0.0434458 -0.0391544 0.118617 0.132252 
3616 2 -0.119795 0.0338302 0.126541 0.177505 