ITEM: TIMESTEP
16000
ITEM: NUMBER OF ATOMS
4320
ITEM: BOX BOUNDS pp pp pp
0.0000000000000000e+00 1.9309999999999999e+01
0.0000000000000000e+00 1.9309999999999999e+01
0.0000000000000000e+00 9.6549999999999994e+00
ITEM: ATOMS id type c_displacement[1] c_displacement[2] c_displacement[3] c_displacement[4] 
3196 1 -0.156732 0.024368 -0.144606 0.214639 
381 1 -0.036692 0.0576202 0.0683676 0.0966464 
327 1 -0.181732 0.127086 0.220243 0.312545 
484 1 0.0104102 0.193446 0.353242 0.402877 
728 1 -0.0268713 0.107664 -0.0336389 0.115953 
303 1 0.194382 -0.135132 -0.31743 0.395989 
2478 1 0.192552 0.052371 0.303035 0.362835 
424 1 0.0546463 -0.00541465 -0.0720526 0.0905931 
4289 2 0.0285755 0.0201429 0.103643 0.109381 
2945 1 0.0286323 0.232382 0.0515925 0.239756 
3230 1 0.161374 0.047883 -0.0873222 0.18963 
3651 2 0.227623 0.212638 0.0415798 0.314255 
400 1 -0.0798568 0.249825 -0.0669709 0.270693 
4053 2 0.00663648 0.396501 0.0798558 0.404517 
66 1 0.116126 0.00437001 -0.039779 0.122828 
87 1 0.225881 0.33235 -0.105068 0.415353 
677 1 0.0692267 -0.0383213 -0.0433358 0.0902156 
3478 2 0.192721 -0.0191182 0.121182 0.228455 
727 1 0.286948 0.0792644 -0.192348 0.354429 
688 1 0.211013 0.0949252 0.0402823 0.234862 
58 1 0.169822 -0.0270662 -0.310378 0.354834 
18 1 0.404794 0.281243 -0.0030038 0.492915 
190 1 -0.0678845 0.0967173 -0.206113 0.237582 
3460 2 0.0648676 0.00547521 -0.00792297 0.0655786 
3618 2 0.25021 0.0150873 0.00264532 0.250678 
110 1 0.0412881 0.0196878 -0.0491429 0.0671367 
255 1 0.0905448 -0.0749791 -0.0494954 0.127554 
106 1 -0.0900615 -0.124496 0.0703138 0.168981 
217 1 0.0373845 -0.0560674 0.207815 0.218468 
775 1 0.181047 0.0454225 0.046141 0.192277 
3627 2 0.00433387 0.201199 0.0705176 0.213243 
180 1 0.166017 0.0314015 0.0917971 0.192288 
3611 2 0.0831651 -0.132187 -0.0649241 0.16913 
920 1 0.223941 0.157073 0.115527 0.296931 
3118 1 -0.0360607 0.0273618 0.0154371 0.0478262 
562 1 -0.056065 -0.051483 0.0932959 0.120407 
70 1 -0.0381261 0.151005 0.114863 0.193519 
121 1 -0.0607582 0.138386 0.00424877 0.151196 
1118 1 -0.0857661 -0.188738 0.0205331 0.208326 
210 1 0.195099 0.030119 0.157206 0.252358 
232 1 -0.0083772 -0.0496111 0.0254936 0.0564036 
608 1 0.222827 0.0570182 0.0432016 0.234029 
96 1 0.206252 -0.088513 -0.143231 0.266251 
4214 2 0.229914 -0.0791236 0.0815236 0.256451 
226 1 0.206626 -0.0714709 0.079266 0.232563 
532 1 0.0207929 0.0362203 0.0265168 0.0494711 
3578 2 0.0152778 -0.0229374 -0.159816 0.162175 
473 1 0.0644887 0.0193558 -0.0502895 0.0840386 
246 1 0.154162 0.0301968 -0.00552457 0.157189 
817 1 0.301713 -0.159942 0.112087 0.35941 
4071 2 0.128264 -0.0232986 0.122911 0.179169 
2838 1 0.0991518 0.0843267 0.164808 0.210009 
536 1 0.0761784 0.0856403 0.0741814 0.136529 
894 1 -0.0329751 0.0705313 -0.310153 0.319776 
289 1 0.00508406 -0.189928 0.151341 0.242904 
351 1 -0.0468549 0.0934222 -0.286415 0.304888 
3135 1 0.090197 0.430195 -0.0252493 0.440274 
4034 2 0.301859 0.263247 0.591859 0.714643 
2936 1 0.0675595 0.0516911 -0.0745981 0.113142 
623 1 0.0164656 -0.00681382 -0.108732 0.110182 
1415 1 0.194935 0.117597 0.0143637 0.228112 
527 1 -0.0992682 0.00984192 -0.129533 0.163493 
3002 1 -0.130552 0.257226 -0.00239482 0.28847 
3189 1 0.0566723 0.272961 0.072572 0.288073 
712 1 0.027284 -0.01634 -0.000950953 0.0318169 
718 1 0.14073 -0.0573687 0.0588217 0.16296 
3469 2 0.269296 0.0653758 0.0558687 0.282694 
725 1 0.0215641 0.0470991 0.0308246 0.0602785 
3199 1 0.0637813 0.152634 -0.0983427 0.192449 
4177 2 0.19352 -0.43195 0.271451 0.545634 
93 1 -0.0368478 0.219299 0.126828 0.255998 
569 1 0.105217 0.0364882 0.0633596 0.128127 
639 1 -0.204908 0.0178938 -0.240834 0.316715 
21 1 -0.0942777 0.00178794 0.0277577 0.0982953 
3353 1 -0.130119 -0.176084 -0.00521792 0.219006 
823 1 -0.00881684 0.0444727 0.156009 0.162464 
2596 1 0.0418692 -0.165491 0.132431 0.216051 
50 1 0.0364208 -0.155821 0.00219263 0.160036 
2495 1 0.0546508 0.0265904 -0.0653733 0.0892605 
28 1 -0.0422179 0.0599509 0.0100694 0.0740125 
3055 1 0.119657 -0.0674806 0.0395487 0.142953 
12 1 0.0548272 0.0182805 -0.0828438 0.101011 
738 1 0.0901445 -0.169361 0.0432005 0.196661 
65 1 0.00387609 -0.076532 0.0722568 0.105324 
4170 2 -0.227581 -0.0706735 0.204701 0.31415 
2453 1 0.218669 0.0999476 0.197734 0.311295 
3167 1 0.0800324 -0.0352472 0.0210419 0.0899462 
339 1 0.0442036 0.254431 0.0299584 0.259974 
988 1 -0.019968 0.0778978 -0.223177 0.237223 
390 1 0.274385 0.05408 0.0808595 0.291118 
203 1 0.0569992 -0.157548 -0.00721801 0.167697 
3582 2 0.119029 0.269365 -0.0736753 0.303568 
3632 2 0.128979 0.215972 -0.13857 0.287195 
231 1 0.176343 0.0791771 0.0607111 0.202613 
323 1 0.0713488 0.182862 0.043605 0.201074 
3244 1 0.0826997 0.14461 -0.0675991 0.17978 
118 1 0.128519 -0.0711529 -0.0145656 0.147621 
3467 2 -0.0241527 0.807997 0.439105 0.919921 
2768 1 0.0925487 0.142607 -0.161374 0.234401 
3251 1 -0.192535 0.154097 -0.247268 0.349223 
155 1 -0.274803 0.104128 -0.12507 0.319378 
2960 1 -0.194916 0.128515 -0.200796 0.30794 
2735 1 0.0146759 0.0372506 0.317842 0.320353 
29 1 -0.0329257 0.48222 -0.123329 0.498829 
753 1 0.00804132 -0.16234 0.109294 0.195868 
553 1 -0.370972 0.281759 -0.372159 0.596247 
437 1 0.43329 0.346416 -0.344964 0.653257 
53 1 0.399136 0.212185 -0.368234 0.583034 
593 1 -0.11687 0.344807 0.256974 0.44563 
609 1 0.473675 0.108848 -0.344537 0.595753 
3040 1 0.00594702 0.189071 -0.1724 0.255939 
4228 2 0.105718 0.0311995 -0.221497 0.247408 
3346 1 0.161374 0.0834301 -0.026296 0.183558 
546 1 0.0596565 0.0445783 0.0721639 0.1037 
167 1 -0.174277 0.148379 0.042875 0.232867 
610 1 0.295067 0.0643876 0.130558 0.329022 
89 1 -0.00354685 0.0628787 0.0062776 0.0632907 
3149 1 0.0310665 0.10415 -0.0389516 0.115454 
550 1 0.0651149 -0.0135872 0.095582 0.116449 
147 1 0.105197 0.0285395 0.207105 0.234037 
247 1 0.138778 0.0264955 0.190697 0.237332 
3152 1 0.112509 -0.0628047 0.068597 0.145974 
197 1 -0.0969832 0.487784 0.405996 0.642006 
3554 2 0.00547522 0.069595 0.0157644 0.0715678 
3786 2 -0.0456377 0.106068 -0.0954867 0.149836 
5 1 0.018908 0.077417 0.00586544 0.0799081 
2591 1 0.0159744 0.0585662 -0.0659743 0.0896537 
3232 1 -0.114789 0.0817963 0.0605036 0.153388 
1215 1 0.200288 -0.120831 -0.0221724 0.234961 
859 1 0.318654 -0.00874505 -0.0405794 0.321346 
3006 1 0.281995 0.0646581 0.193935 0.3483 
298 1 0.120793 -0.0828804 -0.210119 0.256145 
43 1 0.000942446 0.0449402 0.0203238 0.0493312 
151 1 0.155737 -0.0600521 0.0177718 0.167857 
3743 2 0.0913477 0.0221538 0.0903719 0.130393 
3023 1 0.0157623 0.106957 -0.0780188 0.133323 
2461 1 0.022844 -0.114745 -0.0710421 0.136877 
23 1 0.00248109 0.0557694 -0.0805833 0.0980308 
3730 2 0.0630268 -0.103152 -0.181297 0.217902 
1454 1 -0.0225799 -0.0389116 -0.0377456 0.0587256 
1178 1 -0.00739334 0.0989543 0.0894141 0.133572 
3679 2 -0.499926 0.0634869 -0.0421181 0.505698 
3586 2 0.127988 -0.258778 0.191591 0.346488 
4187 2 0.138135 -0.125511 -0.616738 0.64436 
3514 2 0.0866798 -0.0771931 -0.244372 0.270536 
3608 2 0.112275 -0.0881163 -0.117777 0.185045 
2500 1 0.0743509 -0.186317 0.0124856 0.200992 
3188 1 0.154146 0.471886 -0.0464788 0.498596 
825 1 0.124675 0.120512 0.102066 0.201207 
174 1 -0.215832 -0.133383 -0.102274 0.273559 
1133 1 0.167219 -0.046289 0.0302478 0.176124 
216 1 0.00895072 -0.140304 0.00941885 0.140904 
1179 1 0.174578 0.0522418 -0.0040427 0.182272 
471 1 -0.313999 0.586812 -0.123237 0.676854 
691 1 -0.0416482 0.0266984 -0.0144917 0.0515498 
140 1 0.0477488 -0.174907 0.106065 0.210053 
3003 1 -0.0155382 -0.176937 -0.0460429 0.183488 
3491 2 -0.0814562 0.388303 -0.370121 0.54259 
529 1 -0.0207786 -0.037705 0.108744 0.116956 
3464 2 -0.0209764 0.151321 -0.197862 0.249975 
1480 1 -0.0223101 -0.236868 0.305294 0.387052 
2968 1 0.0387054 -0.0880064 0.135613 0.166235 
98 1 0.313436 -0.279494 0.00554619 0.419988 
40 1 0.0376334 0.0791455 0.137182 0.162785 
1130 1 -0.01642 -0.14133 0.0547329 0.152445 
3041 1 0.0213056 -0.235389 -0.0985628 0.256079 
604 1 0.0743103 -0.0563692 0.0805241 0.123222 
721 1 -0.299902 -0.0114693 -0.12516 0.325173 
241 1 -0.176637 0.0662466 0.113561 0.220194 
559 1 -0.0271634 0.0763859 -0.0341896 0.0879863 
143 1 0.0744846 0.087454 -0.0392952 0.121409 
3164 1 0.110721 0.0847687 0.0653069 0.15398 
64 1 0.00374382 -0.104482 -0.143717 0.177722 
193 1 0.124856 0.00152135 -0.122413 0.17486 
44 1 0.0877715 0.0234934 0.0780739 0.119797 
2996 1 0.0590814 0.0770645 -0.17199 0.19751 
4212 2 -0.113243 0.101204 -0.0813668 0.172299 
3279 1 0.00188476 -0.123735 -0.0385289 0.129609 
178 1 0.191041 -0.0705153 -0.181281 0.272639 
330 1 0.0558464 0.138119 0.0591054 0.160278 
949 1 -0.00168997 0.0299289 -0.052357 0.0603312 
600 1 -0.122822 -0.00830631 -0.0130848 0.123796 
338 1 -0.113352 -0.153314 0.0353786 0.193922 
4101 2 -0.0161779 -0.0682932 -0.13284 0.15024 
2977 1 0.141373 0.190638 0.0447178 0.241514 
3841 2 -0.0270007 0.0492247 0.024599 0.0612962 
211 1 0.278511 -0.156344 -0.144656 0.350624 
78 1 0.0815249 0.105927 -0.00539634 0.133776 
4217 2 -0.114725 -0.00233065 0.0593858 0.129205 
479 1 -0.108239 -0.0216235 0.105062 0.152385 
3335 1 0.0195427 -0.0493717 -0.056 0.0771718 
1457 1 -0.0719372 -0.124135 -0.0951697 0.172167 
3037 1 -0.125342 0.142402 -0.121014 0.225018 
4253 2 0.0723209 0.0550562 -0.143823 0.170137 
387 1 0.0760559 -0.079388 0.0110707 0.110497 
3736 2 -0.0437865 0.291465 0.0748449 0.30409 
2994 1 0.049538 -0.125693 0.0742596 0.154166 
3394 1 -0.131558 -0.0878983 0.00771335 0.158408 
3130 1 -0.080362 -0.0815644 -0.177126 0.210913 
717 1 -0.182332 -0.117872 0.188102 0.287265 
508 1 -0.160675 -0.129557 0.14575 0.252675 
3537 2 0.0635531 -0.0473247 -0.112834 0.137877 
747 1 -0.10469 0.0480929 0.123062 0.168574 
497 1 -0.0876112 0.000478259 0.163797 0.185756 
958 1 -0.0949467 -0.315104 0.0781491 0.338249 
4163 2 -0.145103 -0.0571738 0.217123 0.267332 
133 1 -0.0397288 0.0135988 0.0858497 0.0955692 
4204 2 -0.159405 -0.0603173 0.0646125 0.182272 
86 1 0.309086 0.0716188 -0.117959 0.338494 
759 1 -0.118424 -0.123447 -0.177189 0.246291 
3411 1 -0.0350879 -0.0191682 0.192427 0.196537 
835 1 -0.391263 -0.0827079 0.0651439 0.40518 
3057 1 0.210505 0.0685746 -0.0763189 0.234178 
3620 2 -0.2055 0.340234 0.0847853 0.406421 
446 1 0.0722653 -0.0241038 0.189652 0.20438 
704 1 0.268758 0.152018 -0.0247719 0.309764 
157 1 0.185025 0.189707 0.0316301 0.266877 
54 1 0.125767 -0.0666869 -0.00368177 0.142401 
493 1 0.238612 0.138392 0.160608 0.319191 
204 1 0.0476957 0.0535728 -0.041988 0.0831138 
3599 2 -0.0118996 0.225929 0.0532814 0.232432 
254 1 0.0984384 0.148256 0.0675913 0.190365 
67 1 0.114209 -0.0336066 -0.134635 0.179721 
2988 1 -0.159001 0.178814 -0.0044297 0.239322 
3030 1 -0.183698 0.00576794 -0.118063 0.218443 
4050 2 0.116888 0.0868633 -0.116896 0.186743 
2931 1 -0.136672 -0.100374 0.15275 0.228225 
2934 1 0.165188 0.0235982 -0.209626 0.267931 
3216 1 -0.0744404 -0.0405745 -0.056933 0.102123 
234 1 0.157355 -0.163849 -0.0998916 0.248164 
3479 2 0.078212 0.188738 -0.0408858 0.208352 
1036 1 0.111168 -0.0153378 -0.0412452 0.119561 
3369 1 0.0905473 -0.0357232 0.0401886 0.105309 
3607 2 0.1163 0.0128558 -0.168623 0.205243 
3139 1 0.168126 -0.00426125 -0.0561166 0.177295 
644 1 -0.174189 0.0129736 -0.0627654 0.185606 
1278 1 -0.0236945 0.0575599 -0.152959 0.16514 
80 1 -0.198652 0.0564726 -0.0709905 0.218384 
4089 2 0.198876 0.193914 0.193756 0.338668 
563 1 -0.0636406 0.0771109 -0.0861851 0.132 
4269 2 -0.114796 0.164304 0.245918 0.317253 
214 1 -0.0292634 0.0714721 -0.0619113 0.098983 
640 1 0.0151285 0.0538566 0.203758 0.211297 
199 1 -0.00666683 -0.05766 -0.0182622 0.0608493 
245 1 -0.0831834 -0.0433986 0.0109732 0.0944634 
2758 1 0.0897265 0.193137 0.204667 0.295367 
3056 1 0.00297338 0.0261199 -0.0433798 0.0507237 
3468 2 -0.0937313 0.0425806 0.0280577 0.106705 
2684 1 -0.195314 0.149343 -0.197988 0.315674 
3096 1 -0.113785 0.072103 -0.00520673 0.134808 
240 1 0.0180315 -0.0325093 -0.0164989 0.0406719 
181 1 -0.139034 0.0014756 0.0760302 0.158471 
46 1 0.0458839 -0.249903 -0.0223231 0.255059 
3211 1 0.0655154 0.038612 0.028225 0.081116 
257 1 -0.0918749 0.0780703 -0.0378158 0.126357 
3603 2 0.118941 -0.435793 0.244566 0.513688 
3408 1 -0.0637286 -0.154705 0.160326 0.231732 
1102 1 0.107796 0.537226 -0.103305 0.557587 
3701 2 0.33477 -0.0179361 0.162044 0.372358 
3513 2 0.113238 -0.103781 -0.0603388 0.165028 
312 1 0.177636 -0.104627 -0.0174003 0.206892 
587 1 0.0896141 -0.00632296 0.130049 0.158061 
135 1 0.0677009 -0.198181 -0.143613 0.253936 
3512 2 0.12054 0.116479 0.0497263 0.174843 
134 1 0.0458199 -0.00529445 -0.0294462 0.0547227 
3830 2 -0.502321 -0.145562 0.254675 0.581699 
354 1 0.170533 0.0592018 0.157559 0.239607 
103 1 0.0498207 -0.0180156 -0.0607598 0.0806128 
580 1 -0.148313 -0.0191588 0.142494 0.206563 
191 1 0.115372 0.0183538 0.087306 0.145842 
195 1 -0.00642592 0.130088 -0.0621542 0.144316 
2995 1 -0.0147826 -0.316886 -0.104753 0.334079 
685 1 0.034288 -0.199041 -0.220998 0.299388 
602 1 -0.0239906 -0.000792052 0.0459089 0.0518054 
3092 1 0.029514 -0.00926878 -0.0704074 0.0769037 
4195 2 -0.0158966 -0.00719326 -0.117688 0.118974 
674 1 0.108594 0.176397 0.0976114 0.22899 
540 1 -0.00117802 0.0343046 0.119387 0.124223 
2004 1 -0.0075402 -0.012979 -0.0470027 0.0493413 
182 1 0.145346 0.148876 -0.0314548 0.210426 
427 1 -0.0610811 0.0659481 -0.0696293 0.113703 
4173 2 0.0150008 0.0535563 0.051502 0.0758007 
2950 1 -0.154502 -0.00799841 0.0394686 0.159664 
6 1 0.0585066 -0.095963 -0.127034 0.169616 
902 1 0.163744 0.195169 -0.00386549 0.25479 
690 1 0.0328156 0.0212114 0.149079 0.154114 
742 1 -0.142601 0.0446084 -0.047693 0.156842 
154 1 0.073147 -0.132661 -0.00423907 0.15155 
710 1 0.0327075 -0.0806529 -0.0949718 0.128819 
2926 1 -0.14388 -0.164135 0.0282923 0.220096 
3115 1 -0.122875 -0.0209886 -0.00268775 0.124683 
95 1 -0.0785173 -0.0997497 -0.0166765 0.128035 
3518 2 -0.233122 0.092245 0.00572278 0.250774 
237 1 0.0420403 0.0881759 -0.156529 0.184509 
2494 1 -0.0209116 -0.00581705 0.0560288 0.0600863 
3078 1 0.078997 0.0721531 -0.00130187 0.106997 
3916 2 -0.418973 -0.0159444 0.135135 0.440516 
215 1 -0.100597 0.0911325 0.033076 0.13971 
2939 1 -0.108303 0.160217 0.0818136 0.209982 
205 1 -0.251577 0.039493 0.0805199 0.267084 
694 1 -0.185813 0.1698 0.0994606 0.270649 
861 1 -0.0913346 -0.133988 0.127978 0.206575 
3549 2 -0.117442 -0.044215 -0.0316378 0.129416 
265 1 -0.238847 0.239424 -0.203244 0.394562 
1077 1 0.0277192 0.0385176 0.0956431 0.106769 
3664 2 -0.0143496 -0.177221 0.0565967 0.186591 
3612 2 -0.139247 -0.017388 0.0215872 0.141979 
3393 1 0.00409373 0.0975531 0.023154 0.100347 
353 1 0.0273932 0.00118154 -0.0110233 0.0295516 
512 1 0.0630056 0.0707849 0.0618747 0.113175 
300 1 -0.0814612 0.0378425 0.0286346 0.0942758 
393 1 -0.0032895 -0.0725653 0.115691 0.136605 
2740 1 -0.123993 0.159912 0.0876515 0.22052 
2961 1 -0.118197 0.149742 -0.145179 0.239729 
626 1 0.0245007 -0.0152464 -0.0296062 0.0413432 
3341 1 -0.0867794 0.0689371 -0.0120536 0.111482 
4006 2 -0.298744 -0.127232 0.0731182 0.332839 
3303 1 -0.0339386 0.29801 0.134404 0.328673 
364 1 -0.0993385 -0.0827208 0.0597392 0.142407 
1367 1 -0.0517444 -0.0862798 -0.0109683 0.101203 
411 1 -0.242211 0.106523 0.166912 0.312846 
356 1 0.224043 -0.0198301 0.0699191 0.235536 
3658 2 -0.0737837 0.0479567 0.307783 0.320116 
3404 1 -0.115838 -0.0977991 -0.13443 0.202619 
160 1 -0.061554 0.17501 -0.0190884 0.186498 
3321 1 -0.0224826 0.00819442 -0.207582 0.208956 
3380 1 0.022682 -0.074023 0.0144983 0.078766 
3389 1 -0.145071 -0.207652 -0.0791953 0.265399 
357 1 -0.358251 -0.102511 -0.127057 0.393695 
362 1 -0.0875914 0.00357429 -0.032868 0.0936234 
478 1 -0.185564 0.23123 -0.0772687 0.306385 
2696 1 -0.319457 0.0382575 -0.134172 0.348595 
966 1 -0.0784838 0.0275259 0.0754178 0.112273 
3094 1 0.0477368 0.0396404 0.0169246 0.0643165 
3808 2 0.138295 0.075982 -0.0552251 0.167178 
4257 2 0.338357 0.423987 -0.218124 0.584661 
780 1 -0.19756 -0.0351266 -0.215603 0.294531 
924 1 0.0854213 0.224662 -0.080577 0.2535 
2710 1 0.0342301 0.153414 -0.201097 0.255241 
3313 1 0.0210503 0.0416315 -0.133839 0.141736 
4239 2 0.686049 1.23763 -0.47388 1.4923 
3319 1 -0.132828 0.0931301 -0.121347 0.202587 
3333 1 0.057402 0.00712017 -0.0616415 0.0845302 
3526 2 0.180069 -0.129032 -0.11772 0.250862 
3249 1 0.00552747 0.200161 -0.0621838 0.20967 
92 1 0.104592 0.0173225 0.0672774 0.125562 
3379 1 -0.0967261 0.0945134 0.11201 0.175599 
635 1 -0.113485 -0.263786 -0.0160776 0.287612 
228 1 -0.0381841 -0.0223759 -0.0947352 0.104563 
3409 1 0.0025482 0.00393051 -0.118625 0.118718 
836 1 -0.115265 -0.286819 0.264879 0.407077 
318 1 -0.158812 0.332843 0.127815 0.39031 
100 1 -0.067836 0.029727 -0.0477736 0.0881347 
3162 1 -0.0504762 0.110688 -0.0230002 0.123809 
462 1 -0.0449034 0.0286427 0.130369 0.140829 
2966 1 0.139365 0.0978329 0.00192811 0.170287 
3022 1 0.104372 0.165974 0.0293301 0.198245 
750 1 -0.0729921 -0.0155639 0.0357481 0.0827527 
3281 1 0.140527 -0.038872 0.0882842 0.170449 
449 1 0.0385831 0.0364104 -0.0137064 0.0547927 
886 1 0.0271704 0.137573 0.205164 0.248509 
3209 1 -0.0105782 0.187605 -0.155929 0.244175 
903 1 -0.161903 0.0218248 -0.198572 0.257138 
3647 2 -0.171808 0.068697 0.0931225 0.207145 
2890 1 -0.0216365 0.0369547 0.129037 0.135957 
1285 1 -0.0553005 0.272289 0.327277 0.429313 
943 1 0.0210056 0.00234123 0.102256 0.104418 
3305 1 0.0966852 0.115531 0.0926915 0.176882 
3290 1 -0.0419354 0.124188 -0.11427 0.173893 
4318 2 -0.222357 0.0190864 0.0906324 0.240876 
3883 2 0.038303 0.0728082 0.102479 0.131416 
3227 1 0.0658374 -0.0289003 -0.0361968 0.0804984 
373 1 0.0992773 0.0695608 0.0319655 0.125365 
4297 2 -0.133129 -0.0243136 -0.292509 0.322298 
398 1 0.253883 -0.0947695 -0.0772034 0.281777 
3531 2 0.0191772 -0.127063 -0.211111 0.247145 
771 1 -0.44025 0.280467 0.0164328 0.522256 
1324 1 0.016709 0.0794527 -0.00101695 0.0811971 
3221 1 -0.312029 0.113163 -0.0882139 0.343438 
4159 2 -0.299513 0.0055 0.22094 0.372227 
309 1 -0.221217 0.208435 0.0248139 0.304956 
394 1 0.0485478 -0.0362226 -0.00692187 0.0609662 
412 1 -0.183925 0.202793 -0.0339684 0.275876 
901 1 -0.0675648 -0.155165 -0.230601 0.286039 
3360 1 -0.319945 0.0688729 -0.234321 0.40251 
3314 1 -0.0979222 -0.165798 0.341604 0.392136 
2365 1 -0.0378059 0.135985 -0.12099 0.185903 
3573 2 -0.244374 0.21756 0.0023277 0.327194 
3588 2 0.0472997 0.00469025 -0.0551022 0.0727703 
306 1 -0.102372 -0.0292861 -0.252472 0.274007 
3093 1 -0.0934239 0.115136 -0.17969 0.232965 
2745 1 0.00411753 0.0594488 -0.163929 0.174425 
355 1 -0.217722 -0.0946495 -0.0533525 0.243327 
3097 1 0.0888967 0.137616 -0.233497 0.28524 
3392 1 0.385117 -0.323488 -0.0993922 0.512677 
3350 1 0.21177 0.437414 -0.0650547 0.490316 
3324 1 0.151683 0.0169726 -0.103792 0.184577 
951 1 -0.0334215 0.112649 -0.0713642 0.137476 
2737 1 -0.239882 -0.250301 -0.00582954 0.346739 
2959 1 0.0514218 0.0124542 -0.0196306 0.0564329 
4284 2 -0.417224 0.111231 0.333158 0.545383 
4225 2 -0.250763 0.569665 -0.172318 0.645828 
3483 2 -0.114205 0.16862 -0.0531437 0.210475 
3180 1 -0.355558 -0.62009 0.169468 0.734611 
3320 1 0.0356076 -0.306078 0.120686 0.330933 
4154 2 -0.291565 0.102749 0.0602049 0.314948 
716 1 0.228183 -0.0414186 -0.0840537 0.246674 
4014 2 -0.0602924 -0.0730644 0.0284099 0.0988975 
601 1 0.123263 0.179115 0.0160408 0.218021 
3617 2 0.18107 -0.0829104 -0.0321005 0.20172 
206 1 0.133216 -0.0278614 -0.0994599 0.168567 
71 1 0.136013 0.0479707 -0.00403278 0.144281 
4185 2 0.132191 -0.12781 -0.0489961 0.19029 
3676 2 0.276904 0.0173466 0.0523728 0.282347 
2479 1 -0.285591 0.429783 -0.0726592 0.52111 
277 1 -0.229986 -0.10498 -0.029378 0.254514 
3561 2 0.174552 0.330724 -0.0359544 0.375686 
444 1 -0.0183151 0.0451691 -0.00932459 0.049625 
388 1 0.0700702 0.0499287 0.118863 0.146735 
1313 1 0.168023 0.0107892 0.0275439 0.170607 
3668 2 0.0249253 0.0336674 0.0165427 0.045038 
838 1 0.0358165 0.141282 0.118558 0.187881 
460 1 0.133219 -0.0342953 0.0992385 0.169623 
499 1 0.0582058 0.0420214 -0.00848896 0.0722896 
3548 2 0.112522 0.25602 0.0898465 0.293734 
3535 2 0.0501196 0.103141 -0.0470072 0.123934 
286 1 -0.0151008 -0.114349 -0.0048512 0.115443 
291 1 0.0674816 0.0104725 0.00965952 0.0689692 
482 1 0.153067 -0.103557 -0.0850143 0.203423 
1314 1 0.0777356 0.178492 0.0940823 0.216226 
3672 2 0.039723 0.121122 0.00586819 0.127604 
375 1 0.0740152 -0.0699795 -0.0731359 0.125396 
94 1 -0.0883159 0.164451 -0.13882 0.232626 
4309 2 -0.0772186 -0.11233 -0.0494729 0.145012 
614 1 -0.121907 0.141199 -0.0280831 0.188646 
3257 1 -0.185452 0.116683 -0.191036 0.290693 
468 1 0.0929656 0.0212723 0.0437216 0.104913 
3095 1 -0.49964 0.321541 -0.159699 0.61525 
37 1 0.106171 -0.0657728 0.0890878 0.153411 
1212 1 -0.0747004 0.171147 0.196074 0.27077 
392 1 -0.0356222 -0.131304 -0.0337554 0.140175 
436 1 0.0502178 -0.0510644 -0.081624 0.10859 
792 1 -0.176108 0.0275235 0.15523 0.236364 
3293 1 -0.174892 0.276023 0.121307 0.348556 
3337 1 0.0931875 0.134856 -0.162039 0.230493 
3150 1 -0.192122 0.165819 0.0369312 0.256458 
2861 1 -0.230008 0.128503 -0.120728 0.289814 
384 1 0.428583 0.089365 -0.119611 0.453846 
3197 1 -0.20682 -0.0253352 -0.149926 0.256699 
221 1 -0.00994795 0.179017 -0.0262624 0.181206 
287 1 -0.0406988 -0.0789001 0.000250618 0.0887788 
3401 1 -0.0404305 0.0992799 0.0414821 0.114943 
1389 1 -0.582514 -0.252972 0.221455 0.672577 
1449 1 0.0593838 0.0436682 -0.00232903 0.073748 
4116 2 -0.00103412 0.00314851 -0.00662399 0.00740673 
2732 1 0.126372 0.0248677 -0.108241 0.168239 
3631 2 0.0088213 -0.0767451 -0.060187 0.097929 
389 1 0.147579 -0.129071 0.039954 0.200088 
4304 2 -0.013195 0.174016 0.119588 0.211558 
772 1 -0.0879402 -0.212354 0.0326747 0.232154 
4271 2 0.0288464 0.0813176 0.0689652 0.110458 
1172 1 0.116262 -0.132359 0.0473159 0.182413 
652 1 0.150457 -0.117404 -0.0284921 0.192958 
3568 2 0.0685265 -0.019857 -0.00135147 0.0713583 
3433 1 0.0184838 -0.0952915 0.0321174 0.102243 
3560 2 0.0453302 -0.105355 0.00350127 0.114747 
3419 1 -0.10447 -0.0221889 0.141838 0.177551 
4264 2 0.108698 0.0540509 0.0526531 0.132322 
248 1 0.0924133 0.000537223 0.0709102 0.116485 
1304 1 0.224184 -0.0761508 0.012859 0.237113 
325 1 0.0478597 0.0383274 0.0540638 0.0817462 
292 1 0.122643 0.0120488 0.18132 0.219234 
3444 1 0.0678176 -0.082052 0.0653079 0.124888 
908 1 0.115149 -0.0745653 0.0465655 0.144871 
3504 2 0.15096 -0.143418 0.157081 0.26083 
502 1 -0.0205204 -0.0630877 0.129234 0.145267 
3435 1 0.000517843 -0.0545421 0.216982 0.223732 
3493 2 -0.277193 -0.0913523 -0.037704 0.294284 
3643 2 -0.065744 -0.159426 0.147566 0.226969 
3331 1 -0.026574 -0.0206006 -0.0276298 0.0435198 
4182 2 -0.110689 -0.220819 -0.125465 0.277046 
874 1 0.154323 -0.185755 0.201647 0.314614 
980 1 -0.0399496 -0.0750033 0.196641 0.214218 
225 1 -0.139306 -0.308804 0.0709628 0.346124 
810 1 -0.00158251 -0.235198 0.10378 0.257082 
3082 1 0.117356 0.0615737 0.0602018 0.145561 
31 1 -0.124927 -0.0524901 -0.193756 0.236439 
439 1 0.219624 0.108889 0.0784179 0.257373 
2869 1 -0.154861 -0.229875 0.0640049 0.284467 
1354 1 -0.178336 -0.212158 0.24118 0.3674 
4280 2 0.0611609 -0.166503 0.0441108 0.182783 
416 1 0.018059 -0.187415 0.112983 0.219581 
365 1 0.0161749 -0.143649 0.0995016 0.175491 
3799 2 -0.0740228 -0.227886 -0.0135143 0.239988 
2819 1 0.0189188 -0.191824 -0.0248438 0.194349 
382 1 -0.0569699 0.0124252 -0.167025 0.176911 
3223 1 -0.147748 0.0262854 -0.108666 0.18528 
2776 1 -0.148947 -0.00694477 0.22785 0.272303 
2973 1 -0.374927 -0.0589015 0.0778506 0.387428 
957 1 0.194881 -0.153485 -0.0555352 0.254205 
795 1 0.0542533 0.27706 0.0321114 0.284142 
490 1 0.0299344 -0.106439 -0.0971243 0.147168 
3266 1 0.173172 0.1132 0.0872027 0.224515 
4256 2 -0.255591 -0.399095 0.195722 0.512749 
187 1 -0.0701265 0.0226693 0.0596305 0.094802 
3278 1 0.129288 -0.0349871 -0.0568854 0.145518 
107 1 -0.316111 -0.0124043 -0.0269377 0.317499 
496 1 0.21829 -0.168623 0.149774 0.313873 
2993 1 -0.261763 0.249084 0.0532216 0.365233 
517 1 0.12682 -0.0675034 -0.0573618 0.154695 
279 1 -0.109767 0.240053 0.170977 0.314496 
1337 1 -0.191524 -0.215285 0.185785 0.342849 
917 1 -0.0207791 -0.0967324 -0.0326669 0.104192 
3322 1 0.043369 0.226047 0.185144 0.295392 
3863 2 -0.102806 -0.00880962 0.0995762 0.143395 
274 1 -0.111756 -0.0700478 0.0247448 0.134195 
1091 1 -0.0574752 0.0299133 0.137121 0.151659 
3396 1 0.0107225 0.024777 0.0286521 0.0393676 
3383 1 -0.00309321 -0.00118421 0.139563 0.139603 
1289 1 0.0282389 0.0421043 0.0336437 0.0608449 
4028 2 -0.355829 0.210631 0.236392 0.476299 
2545 1 -0.206349 -0.0897704 -0.058656 0.232549 
3327 1 -0.091081 -0.127654 0.103723 0.188015 
3674 2 -0.0768061 -0.120169 0.202409 0.247607 
1418 1 0.121093 0.00365146 0.0587547 0.134644 
443 1 -0.194772 -0.0572819 0.0179687 0.203814 
855 1 -0.144688 -0.104512 -0.141119 0.227535 
430 1 -0.238157 -0.11971 0.0615947 0.273575 
3476 2 -0.0786132 -0.0567009 0.0448881 0.106818 
4307 2 -0.120393 -0.196839 -0.101099 0.251915 
177 1 -0.00882172 -0.00759299 0.0201443 0.0232652 
363 1 -0.167258 -0.196602 -0.082531 0.270996 
1450 1 -0.136051 -0.0665806 0.0375045 0.156043 
3559 2 -0.00292915 -0.116188 -0.0176209 0.117553 
347 1 -0.0892356 -0.0657326 -0.0279309 0.114297 
4237 2 0.0398183 -0.0428291 -0.0963854 0.112738 
319 1 -0.212324 -0.123918 0.019988 0.246651 
295 1 -0.0226807 -0.105505 -0.0474426 0.117883 
819 1 -0.066912 -0.09692 0.0365242 0.123307 
830 1 -0.0826462 -0.10656 0.0159075 0.135789 
937 1 -0.155365 -0.169694 0.0440091 0.234246 
268 1 0.00499593 0.0516725 0.038105 0.0643972 
854 1 0.0539366 0.0915184 -0.112151 0.154475 
442 1 -0.0221826 -0.120087 -0.0437821 0.129729 
4143 2 -0.150855 0.0926013 -0.0314902 0.179788 
474 1 -0.235518 -0.144032 -0.60883 0.668497 
3291 1 0.110356 -0.058395 0.0633917 0.140024 
3070 1 0.108177 -0.0696998 -0.179059 0.220505 
314 1 -0.050686 -0.00417138 -0.0192665 0.0543845 
899 1 0.0369784 -0.0575188 0.081672 0.106518 
964 1 0.0119871 0.125717 -0.430529 0.448668 
793 1 0.245591 0.0588288 -0.012711 0.252858 
3397 1 -0.0134911 -0.15878 -0.0809483 0.178733 
419 1 0.531233 -0.345639 0.334763 0.716758 
647 1 0.20531 0.288044 0.290924 0.457994 
875 1 -0.0280969 -0.116756 0.0484331 0.129488 
3544 2 -0.063923 0.0871209 0.0628758 0.125018 
1430 1 -0.14753 -0.096735 -0.00365647 0.176454 
3200 1 0.0595933 0.00203372 0.152859 0.164077 
757 1 0.0423731 -0.0263554 0.0280742 0.057256 
3312 1 0.0969263 -0.0183797 -0.0390357 0.106096 
308 1 0.0418831 -0.133171 0.0276721 0.142318 
4285 2 -0.0349123 0.199277 -0.371753 0.423238 
329 1 -0.293111 0.150289 0.00994352 0.329545 
699 1 -0.109251 0.196699 0.0389529 0.228349 
85 1 0.115453 0.0457445 0.226505 0.258314 
3240 1 -0.300805 -0.0663673 0.0120803 0.308276 
113 1 0.0617026 -0.0136008 0.019487 0.0661206 
504 1 -0.171027 -0.00344621 0.0540308 0.179392 
2795 1 -0.216113 -0.0794403 0.233787 0.328134 
581 1 -0.18872 0.00615156 -0.00497707 0.188886 
3541 2 -0.152624 -0.00682766 -0.0334138 0.156388 
786 1 -0.0105077 -0.0939915 0.108183 0.143696 
800 1 -0.0133887 -0.160231 -0.0604682 0.171784 
367 1 0.0322953 -0.036951 0.01532 0.0514107 
2687 1 -0.0927548 -0.171634 -0.00604307 0.195187 
3545 2 -0.0709295 -0.0747625 -0.0821899 0.131817 
491 1 -0.0185315 -0.0672581 -0.0601798 0.0921341 
423 1 0.120985 -0.0696449 -0.01563 0.140471 
2814 1 0.0159394 0.0197281 -0.00675987 0.026248 
1723 1 -0.0627157 -0.0661876 -0.0673911 0.113383 
3264 1 -0.0538153 -0.266595 -0.0513371 0.276775 
440 1 -0.0507623 -0.0106536 0.0732142 0.0897253 
431 1 -0.077625 -0.166375 0.0548549 0.191612 
781 1 0.0742113 -0.125583 0.0400527 0.15127 
501 1 0.036346 -0.193792 0.208935 0.28728 
4098 2 -0.119787 -0.185401 0.464154 0.513966 
968 1 0.0801244 0.0154792 0.0348791 0.0887473 
421 1 -0.188937 -0.196566 -0.131493 0.302698 
801 1 -0.167898 -0.289307 0.0189436 0.335033 
2656 1 -0.0390987 -0.0770062 -0.0757314 0.114865 
4152 2 0.00963033 -0.164858 0.0368061 0.169191 
1254 1 -0.0252892 -0.0927215 0.00315182 0.09616 
2884 1 0.0118788 -0.185949 -0.180418 0.259362 
3192 1 0.144027 -0.0233206 -0.307715 0.340553 
461 1 -0.0373135 0.113292 -0.0587801 0.132975 
3339 1 -0.0246566 0.00102291 -0.0100031 0.0266281 
3436 1 -0.032657 -0.249213 0.0180311 0.251989 
486 1 0.0464515 0.16037 -0.107067 0.198342 
3371 1 0.0651902 -0.0111982 -0.293273 0.300639 
840 1 -0.0222787 2.57874e-05 -0.142992 0.144717 
402 1 0.283016 -0.0129914 0.11697 0.306511 
307 1 -0.109575 -0.0534763 -0.0227634 0.124035 
822 1 0.118275 -0.0532484 0.265385 0.295387 
3378 1 0.309773 0.256972 0.152853 0.430532 
783 1 -0.279753 0.10145 -0.241107 0.382997 
3434 1 -0.112565 -0.120981 -0.0461725 0.171578 
275 1 0.186107 0.063997 -0.0756331 0.210836 
404 1 -0.143724 -0.0818613 0.0687482 0.17912 
208 1 -0.109848 -0.132877 -0.0778132 0.18915 
1442 1 0.00158179 -0.0124362 -0.0555954 0.0569913 
3678 2 -0.117184 -0.0120589 0.18479 0.219146 
2873 1 0.00635131 0.101785 0.198565 0.223223 
3482 2 -0.0225559 -0.127156 -0.0905132 0.157702 
128 1 -0.0663088 0.00613602 0.162111 0.175255 
907 1 0.0561809 0.0301112 0.0904847 0.110682 
1641 1 -0.000553004 0.0631808 -0.0903729 0.11027 
1041 1 -0.0439609 0.0770656 0.00440251 0.0888315 
850 1 0.0484329 0.0284525 0.116386 0.129232 
345 1 -0.111287 -0.0164114 0.106946 0.155214 
865 1 0.0944848 -0.116827 0.158766 0.218592 
1474 1 0.0159578 0.15664 0.0880365 0.180392 
1535 1 0.0862813 -0.119453 -0.0664085 0.161628 
573 1 0.114214 0.158 0.0120989 0.195334 
3844 2 0.00425841 0.00694728 -0.189481 0.189656 
631 1 0.0881672 0.0692872 0.127603 0.169873 
3600 2 0.193565 0.131361 -0.104509 0.256214 
1258 1 0.0700055 -0.065829 0.167711 0.193291 
606 1 0.119595 -0.0021576 0.198281 0.231566 
3778 2 0.0492559 0.00945572 -0.0702881 0.086348 
3481 2 0.563123 -0.182875 -0.231913 0.635872 
1569 1 0.00202843 -0.0878427 -0.117432 0.146665 
63 1 0.0356583 0.135453 0.132913 0.193093 
577 1 -0.00451935 0.124635 0.0907147 0.154219 
565 1 0.0440075 0.0801467 0.148716 0.174575 
3616 2 0.00250116 0.117341 0.180825 0.215576 
3418 1 0.0534183 -0.0243284 0.0632622 0.0862989 
4176 2 -0.0154752 0.185051 0.044466 0.190947 