ITEM: TIMESTEP
740000
ITEM: NUMBER OF ATOMS
4320
ITEM: BOX BOUNDS pp pp pp
0.0000000000000000e+00 1.9309999999999999e+01
0.0000000000000000e+00 1.9309999999999999e+01
0.0000000000000000e+00 9.6549999999999994e+00
ITEM: ATOMS id type c_displacement[1] c_displacement[2] c_displacement[3] c_displacement[4] 
381 1 -0.0924624 -0.276217 0.0882976 0.304371 
3196 1 -0.390928 -0.412553 -0.265734 0.627407 
817 1 0.0673208 -0.113066 -0.0135634 0.132287 
303 1 -0.113232 -0.691467 -0.383344 0.798686 
2478 1 0.188833 -0.532797 0.635467 0.850499 
728 1 0.367271 -0.101285 0.307951 0.489878 
89 1 0.44527 0.521508 1.07525 1.2753 
677 1 -0.231665 -0.389444 0.313072 0.550772 
171 1 0.891 -1.25772 -0.74669 1.71268 
87 1 0.32234 -0.185031 -1.05095 1.11474 
3230 1 0.101549 -0.0883295 0.0201022 0.136082 
3651 2 0.21791 -0.263576 -0.0673856 0.348565 
2939 1 -0.0705967 -0.1583 1.04734 1.06158 
3512 2 0.273639 -0.796249 0.324681 0.90239 
66 1 0.134486 -0.0957846 -0.123298 0.206067 
2056 1 1.39341 -0.542401 0.123338 1.50033 
623 1 -0.0535648 0.206924 -0.0151453 0.21428 
3743 2 -0.400326 0.421257 -0.731246 0.934044 
18 1 -0.0991956 -0.473224 0.0317944 0.484553 
727 1 0.0543172 -0.103078 -0.00273712 0.116546 
688 1 0.277787 -0.0367809 0.150356 0.318002 
58 1 0.214036 -0.183081 -0.0123134 0.281925 
190 1 -0.0214429 -0.411119 -0.0881386 0.421007 
4177 2 -0.25316 -0.257169 -0.195169 0.410264 
3514 2 0.223426 -0.177439 -0.0199335 0.286009 
379 1 -0.523907 -0.827622 -0.183694 0.996584 
479 1 0.322547 0.307917 -0.412746 0.607626 
217 1 0.07025 -0.18349 -0.164588 0.256306 
775 1 0.391493 -0.48875 0.225642 0.665626 
608 1 -0.19007 0.0187777 -0.616382 0.645296 
28 1 0.118532 0.380466 -0.655197 0.766869 
823 1 0.488136 -0.710294 -0.486121 0.989499 
137 1 -0.42374 -0.598767 0.383259 0.827626 
255 1 0.0728176 -0.722482 -0.435833 0.846896 
4170 2 -0.226497 -0.951609 -1.11896 1.48625 
129 1 0.9086 -0.230571 -0.177799 0.954112 
121 1 1.04022 0.000663492 -0.202445 1.05974 
562 1 0.947949 -0.0894785 -0.326354 1.00654 
2453 1 -0.241431 0.516799 -0.974647 1.1293 
3627 2 1.04448 1.6742 0.534121 2.0443 
158 1 -0.189258 0.162947 -0.571135 0.62335 
215 1 -0.194559 -0.0159613 0.0261158 0.196952 
70 1 1.36311 0.416322 0.26605 1.44989 
232 1 0.536424 0.306018 -0.260565 0.670292 
3401 1 -0.355288 -0.410837 0.074452 0.548233 
532 1 -0.198246 0.0799328 -0.0851934 0.230106 
473 1 -0.256264 -0.373472 -0.114512 0.467189 
246 1 0.500606 0.392144 -0.231866 0.676864 
4214 2 0.0154109 0.487419 0.0785725 0.493952 
3393 1 -0.0352268 -0.478331 -0.049816 0.482207 
3199 1 0.413045 0.0731808 0.0270072 0.420346 
3808 2 -0.188745 -0.627324 -0.797632 1.03217 
536 1 0.0140994 -0.1789 0.580106 0.607229 
3455 1 1.58991 0.172887 1.3836 2.11473 
484 1 1.16505 -0.31691 1.10936 1.63965 
3135 1 0.171568 0.447045 -0.277185 0.553278 
351 1 0.0190817 -0.194327 0.270359 0.333498 
197 1 0.289038 0.40054 -0.32859 0.593251 
4071 2 -1.28816 0.500192 1.16418 1.80689 
233 1 -0.099137 1.59787 0.12502 1.60582 
4053 2 1.49766 -0.453452 0.716181 1.72091 
2945 1 0.289229 -0.473099 1.72971 1.81642 
527 1 0.108576 -0.261097 0.0889641 0.296437 
2983 1 0.674679 -0.260299 0.03068 0.723801 
1415 1 -0.0218724 -0.364655 -0.104766 0.380036 
3002 1 0.502745 0.0168053 -0.781549 0.929437 
894 1 0.267363 1.33276 0.211385 1.37565 
3189 1 -0.208081 0.353177 -0.390322 0.566024 
110 1 -0.339557 -0.0905516 0.408251 0.538672 
93 1 0.157551 -0.172844 -0.0543133 0.240099 
639 1 -0.143535 -0.353219 0.0244312 0.382051 
3353 1 -0.290679 -0.513652 0.7447 0.950216 
569 1 0.0903191 -0.375502 0.360436 0.528274 
718 1 -0.0917259 1.14648 0.240248 1.17497 
180 1 0.00154047 -1.18923 0.715046 1.38764 
106 1 -0.315189 -0.58593 0.634111 0.919105 
2596 1 -0.208553 0.00237274 -0.369109 0.423959 
3055 1 -0.0407551 0.408779 -0.406643 0.578031 
2495 1 0.330627 -0.081404 -0.289923 0.447209 
3835 2 0.364586 0.893429 0.31313 1.01449 
3152 1 0.137485 -0.00750497 -0.760933 0.77329 
3232 1 0.0553971 0.276494 -0.764075 0.81445 
155 1 -0.0785333 -0.117052 -0.248759 0.285919 
49 1 -0.45306 -0.070459 -0.130584 0.476739 
3712 2 0.44885 0.225298 0.718771 0.876845 
12 1 0.199652 0.542819 -0.67017 0.885234 
738 1 0.27078 0.32269 -0.753716 0.863446 
339 1 -0.61564 -0.364664 -0.338874 0.791725 
3167 1 -0.0260667 0.174887 -0.218497 0.28108 
1271 1 -0.698242 0.519771 -0.604546 1.0598 
988 1 0.0271348 0.106771 -0.28416 0.304767 
231 1 0.200191 0.748718 0.759244 1.08495 
3460 2 0.0998026 -0.231796 -1.22694 1.25263 
4289 2 -0.140913 -0.159621 -0.573986 0.612205 
4278 2 -0.573629 -0.00614116 0.219027 0.614053 
568 1 0.611639 0.029561 0.277193 0.67217 
210 1 0.754436 0.456521 0.265345 0.920865 
3632 2 -0.399842 -0.178842 0.0813257 0.445502 
390 1 0.167841 0.261097 0.137606 0.339525 
3244 1 0.223724 0.123943 -0.0390862 0.258732 
3346 1 -0.130349 0.0635204 -1.17425 1.18317 
2961 1 -0.65072 0.450879 0.0939471 0.797216 
424 1 0.208489 0.11186 -0.223233 0.32529 
4256 2 -0.468681 1.45127 -1.28006 1.99108 
29 1 -0.0781148 0.326273 0.0411998 0.338014 
553 1 -0.652623 0.934807 -0.556556 1.26867 
753 1 -0.178864 -0.260617 0.137154 0.344564 
2960 1 -0.308475 -0.0290213 -0.0145995 0.310181 
3467 2 -0.118846 0.76629 0.337833 0.845846 
471 1 -0.145513 0.464918 -0.919665 1.04072 
1133 1 0.520742 0.0719707 0.0126421 0.525844 
53 1 0.473014 0.0193366 -0.163202 0.500751 
2735 1 0.397574 0.61223 0.181842 0.752301 
96 1 -0.188172 -0.41925 0.361709 0.584818 
437 1 0.706881 0.2956 0.0315394 0.766847 
725 1 0.681737 -0.327427 0.611726 0.972719 
3040 1 -0.042784 0.206812 0.507698 0.549872 
78 1 0.600111 0.0164294 -0.240558 0.646739 
118 1 -0.0515595 -0.511229 0.263324 0.577368 
167 1 0.0253478 0.190056 0.0707642 0.204381 
550 1 0.2387 -0.435674 0.372264 0.620781 
21 1 0.02049 -0.837191 0.71228 1.09939 
3149 1 0.0571447 0.555146 0.270272 0.620081 
100 1 -0.552284 -0.158086 -0.621679 0.84646 
147 1 0.603167 0.109598 -0.461538 0.767359 
2987 1 -0.78384 0.187343 0.107451 0.813049 
323 1 -1.034 0.152555 0.60099 1.20566 
2591 1 0.30204 0.055252 -0.426344 0.525405 
1215 1 -0.0133099 0.418471 0.266995 0.49657 
3786 2 0.0111913 -0.560258 -0.868632 1.0337 
4169 2 -0.759908 0.0824173 -0.5825 0.961019 
610 1 -0.163448 1.64601 0.120998 1.65853 
5 1 0.257464 0.43433 -0.224369 0.552514 
859 1 -0.0545876 -0.0366444 -0.317086 0.323831 
821 1 -0.926759 0.188894 -1.24388 1.56263 
716 1 0.0410869 -0.395719 0.164162 0.430384 
23 1 0.0833427 0.128096 -0.292356 0.329889 
3023 1 0.210307 0.290038 0.00104107 0.358263 
3608 2 0.122717 0.0917626 -0.215545 0.264461 
3730 2 -0.201053 -0.033609 -0.238009 0.313369 
151 1 -0.194769 -0.211564 -0.243907 0.377075 
2461 1 0.0177915 -0.228562 -0.310204 0.385724 
103 1 -0.606239 0.478882 -0.67989 1.02913 
43 1 -0.122953 -0.0132493 -0.147735 0.192662 
3478 2 0.93548 0.0872359 -0.366849 1.00862 
3006 1 0.509859 0.138477 0.0570293 0.531399 
3877 2 0.00858479 -1.50071 -0.144585 1.50768 
50 1 0.326588 0.198979 -0.0843907 0.39163 
400 1 0.0389436 -1.03994 -0.505978 1.15716 
546 1 -0.109424 0.396809 -0.000665459 0.411621 
330 1 -0.445486 0.756551 -0.577597 1.05093 
317 1 0.245066 0.329061 0.236237 0.473441 
2052 1 0.173244 0.14529 0.720438 0.755085 
3188 1 0.0716984 0.398801 0.144692 0.430254 
3464 2 -0.647021 -1.01494 -0.254664 1.23028 
3491 2 0.580207 -0.200028 0.31717 0.690832 
691 1 0.159732 -0.639366 0.155768 0.677176 
1487 1 -1.70772 -0.328715 -0.645449 1.85499 
4257 2 1.83354 0.993975 0.47741 2.13958 
675 1 -0.583871 -0.387787 -1.85647 1.98438 
343 1 0.403464 0.144527 -0.596148 0.734209 
140 1 -0.37954 -0.0311723 0.15556 0.411365 
3164 1 -0.27755 0.603498 -0.0413401 0.665547 
529 1 0.044369 -0.00158517 -0.0794889 0.0910473 
1480 1 0.0127702 -0.260796 0.38281 0.46338 
4094 2 0.889637 -1.64314 -0.848201 2.05202 
609 1 -0.279479 0.622024 0.705586 0.981261 
133 1 0.335493 0.205748 -0.213592 0.447782 
1331 1 -0.369881 0.110448 0.194349 0.432183 
759 1 -0.0571228 -0.347849 -0.51836 0.626865 
2494 1 0.0956694 -0.641048 0.0476738 0.649899 
40 1 0.274872 -0.341257 0.0619455 0.442547 
131 1 0.291451 -0.536071 -0.30103 0.680393 
3535 2 0.564957 -0.253574 0.179104 0.644635 
98 1 0.612589 0.869054 0.549836 1.19701 
3041 1 0.0333004 -0.0518197 0.495811 0.499623 
604 1 -0.42321 0.233101 0.0765272 0.489182 
1130 1 0.490875 1.11453 -0.0261728 1.21812 
75 1 0.352751 0.292046 0.257155 0.525217 
193 1 0.320049 -0.00753689 0.257809 0.41104 
593 1 -0.0518682 0.817984 0.81956 1.15908 
2996 1 -0.0965956 0.295016 -0.399086 0.505603 
3279 1 0.0494138 -0.132478 -0.379119 0.404627 
178 1 -0.0484522 0.230977 -0.11344 0.261852 
4212 2 -0.420057 0.498157 -0.0525961 0.653739 
3024 1 0.620873 -0.425308 -0.402091 0.853257 
3841 2 0.018595 -0.134871 0.180428 0.226032 
2981 1 -0.521628 0.359239 -0.5668 0.849948 
338 1 -0.184889 -0.128566 -0.431073 0.486351 
4101 2 0.0439886 0.146602 -0.306522 0.342612 
3216 1 -0.0824207 0.298897 -0.280576 0.418157 
3477 2 0.4735 -0.824409 -1.0385 1.40796 
234 1 -0.131084 -0.0676009 -0.470094 0.492688 
600 1 -0.190688 0.320059 -0.193043 0.419601 
3736 2 0.143908 -0.254415 -0.749973 0.80492 
67 1 -0.0674597 0.12275 -0.253712 0.289807 
580 1 -0.106586 -0.0405769 -0.000685075 0.114051 
1457 1 0.0566672 -0.0398681 -0.14626 0.161841 
4253 2 0.160106 -0.0515258 -0.444399 0.475163 
640 1 0.0275965 0.0633984 -0.79615 0.799147 
3037 1 0.0835724 0.18291 -0.0851419 0.218379 
127 1 -0.257889 0.953252 -0.390771 1.06203 
3408 1 0.194106 -0.0580386 -0.0637854 0.212401 
44 1 0.29437 0.167469 0.260497 0.427269 
2500 1 0.176587 -0.164301 0.199766 0.313184 
2931 1 -0.173879 -0.0580383 0.688717 0.712694 
3537 2 -0.491897 0.223743 -0.417802 0.683068 
174 1 -0.550138 0.0190137 0.555446 0.782006 
3394 1 -0.909041 -0.183116 -0.145326 0.93862 
508 1 -0.604414 -0.0735994 0.565877 0.831234 
3544 2 0.0737089 1.13489 -0.373988 1.1972 
717 1 -0.746622 0.154371 0.951524 1.21929 
3518 2 -0.246876 0.126079 0.0395363 0.280012 
3411 1 -0.567413 0.310008 0.305702 0.715203 
3057 1 0.294864 0.552719 -0.527687 0.819083 
835 1 -0.139138 0.752831 -0.198762 0.790961 
95 1 -0.0105158 -0.152217 0.224877 0.271754 
3634 2 0.111195 0.359261 2.60253 2.62957 
80 1 -0.24559 -0.100168 0.139507 0.299684 
64 1 -1.14054 -0.531094 0.135031 1.26536 
721 1 0.749119 -0.109995 0.29133 0.811265 
3533 2 -1.742 -1.20064 -2.25927 3.09522 
86 1 0.692443 0.712196 -0.389784 1.06707 
241 1 -0.452264 0.32511 1.12289 1.25345 
204 1 -0.657941 -0.368176 -0.513255 0.912069 
254 1 -0.221678 0.312313 -0.631271 0.738366 
216 1 -0.0337377 -0.27674 0.185002 0.334588 
3599 2 -0.277984 0.710276 -0.616417 0.980682 
2988 1 -0.728875 -0.0333449 -0.571641 0.9269 
4027 2 1.56584 -1.40797 -0.371759 2.13832 
493 1 -0.53032 0.663725 0.331844 0.91208 
2004 1 0.243315 0.3474 -0.96559 1.05463 
665 1 -0.470027 0.710998 0.331518 0.91452 
3030 1 0.38556 0.534496 0.162588 0.678805 
747 1 -0.635635 -0.0907093 0.511228 0.82074 
559 1 -0.414902 -0.250331 -0.105137 0.495846 
3369 1 -0.210638 -0.0491379 -0.349376 0.410909 
3479 2 0.412754 0.57422 -0.516628 0.875785 
1036 1 0.493846 0.280417 -0.122466 0.580961 
3139 1 0.236688 -0.122632 0.0491556 0.271065 
3607 2 -0.239281 0.206592 -0.330525 0.457364 
644 1 0.0317304 -0.041012 -0.143199 0.152298 
3974 2 -1.3259 -0.896848 0.262482 1.62211 
354 1 -0.0642235 -0.0921196 0.0923972 0.145423 
387 1 0.0952036 0.0145626 0.0123693 0.0971019 
4217 2 -0.0373015 0.145066 0.390462 0.418206 
199 1 -0.0422985 -0.0842325 -0.118182 0.151167 
245 1 -0.621794 -0.203728 -0.240062 0.696967 
3007 1 -0.0215523 0.196918 -1.36696 1.38124 
1278 1 -0.43003 0.547417 -0.508471 0.862052 
4089 2 0.289044 -0.0587555 0.0540169 0.299861 
187 1 -0.264367 -0.36943 -0.0853591 0.462228 
214 1 0.106324 0.0878016 -0.0711014 0.155143 
3056 1 -0.0249296 -0.0546007 -0.0795126 0.0996242 
2758 1 -0.00514665 0.17311 0.233152 0.290437 
3468 2 -0.485821 -0.138616 0.177934 0.535628 
3644 2 -0.133852 0.0931362 0.405102 0.43669 
551 1 -0.136698 -0.0971533 -0.273665 0.320963 
181 1 -0.906766 -0.619164 0.262467 1.12893 
2977 1 0.110391 0.0429509 0.150525 0.191543 
2684 1 0.0635202 -0.70775 -0.285084 0.765648 
3130 1 -0.551405 -0.169434 0.325243 0.662222 
1149 1 -0.139489 -0.173063 0.151125 0.268788 
46 1 -0.253727 -0.349664 0.685027 0.809879 
3096 1 -0.347739 0.706089 -0.548014 0.959064 
3701 2 -0.0754917 -0.701829 0.435551 0.829438 
3603 2 -0.718751 -0.600734 0.205882 0.9591 
207 1 -0.622701 0.0572852 -0.188816 0.653214 
1102 1 -0.0659176 0.212935 -0.245216 0.331387 
240 1 -0.222681 0.412461 -0.0153697 0.468985 
134 1 -0.234472 -0.0741219 -0.214297 0.326181 
958 1 -0.703902 0.362298 0.810432 1.13293 
312 1 0.535105 0.0303171 0.0977711 0.544807 
3513 2 -0.178848 -0.117363 -0.176819 0.277535 
587 1 -0.215808 -0.155577 0.514077 0.578838 
3576 2 -0.512292 2.37984 -1.18967 2.7095 
685 1 -0.00482287 -0.330929 -0.282056 0.434848 
710 1 0.14611 -0.254481 -0.200532 0.355418 
733 1 -0.399071 0.347589 -0.395652 0.66077 
704 1 -0.532808 0.198368 0.605133 0.830314 
3620 2 -1.12508 1.65787 1.0483 2.26126 
3092 1 -0.0339142 -0.217128 0.0146694 0.22025 
191 1 -0.683912 0.468695 0.284974 0.87671 
1179 1 -0.6786 0.0654651 -0.0622503 0.684586 
3003 1 -0.107027 -0.136724 -0.00412633 0.173682 
602 1 -0.318001 -0.0789591 0.334297 0.468096 
3118 1 0.11135 -0.775766 -0.439134 0.898359 
182 1 -0.678285 -0.115214 -0.700181 0.98163 
4195 2 -0.354748 0.417863 0.271264 0.611588 
657 1 -0.500708 0.396768 -0.79513 1.01998 
4173 2 0.0452764 0.143261 -0.342137 0.373673 
540 1 -0.87877 0.518937 0.277413 1.05759 
920 1 -0.201175 -0.0816379 -0.373488 0.432006 
690 1 0.157646 0.0980786 -0.286095 0.34106 
6 1 -0.441886 0.397237 -0.203541 0.628084 
4269 2 -0.246494 -0.0493056 0.580381 0.632481 
2926 1 -0.0905314 -0.0914102 -0.0687189 0.145856 
742 1 0.258326 -0.134503 -0.386681 0.484093 
446 1 -0.0237565 -0.0903982 -0.414524 0.424931 
902 1 0.112419 0.490696 -0.129473 0.519792 
1648 1 -0.246303 -0.251495 0.722582 0.803766 
4228 2 0.409637 0.915771 0.0558961 1.00477 
674 1 0.26322 -0.245569 -0.272386 0.451423 
226 1 0.74358 -0.377513 -0.514379 0.979803 
2968 1 -0.365071 -0.526634 -0.0950428 0.647807 
235 1 -0.251785 -0.146967 0.168422 0.336691 
185 1 0.439035 0.00194633 -0.0407393 0.440925 
694 1 0.0751151 -0.333287 -0.0426338 0.344297 
1077 1 0.288007 0.03416 -0.0167534 0.29051 
205 1 0.155074 -0.19468 0.0522036 0.25431 
861 1 -0.313238 0.154699 -0.270631 0.441918 
221 1 0.46459 0.287847 0.0889052 0.553718 
767 1 0.772048 -0.887623 -0.414719 1.24737 
3341 1 -0.0624137 0.013829 0.419694 0.424535 
2740 1 -0.0292165 -0.212813 -0.824642 0.85216 
512 1 0.13273 0.71109 0.13324 0.73554 
886 1 -0.0739228 0.179203 -4.44423e-05 0.193851 
300 1 -0.733692 -0.0289877 0.194807 0.759667 
3883 2 -1.19029 -2.00811 -2.0717 3.1211 
3549 2 -1.35469 0.669217 -0.526726 1.60015 
2329 1 0.0949941 -0.276583 -0.134997 0.322096 
364 1 -0.0459663 -0.262941 -0.0957636 0.283587 
635 1 -0.57216 -0.32103 -0.252555 0.703001 
478 1 0.121533 -0.734252 -0.285594 0.797157 
334 1 0.56707 0.211076 0.317103 0.683137 
3434 1 -0.563432 0.213388 0.274607 0.662117 
489 1 0.868319 -0.248378 -0.254399 0.93829 
3612 2 -0.976175 -1.64285 -0.0340805 1.91129 
3094 1 0.692328 0.245617 0.112439 0.743161 
3389 1 0.127573 0.265069 0.0955212 0.30929 
362 1 -0.466218 0.0386808 0.443187 0.644414 
3588 2 0.560252 -1.71694 -0.595899 1.9018 
3482 2 -0.556205 -1.22872 0.199877 1.36348 
308 1 -1.53534 -0.340602 0.194511 1.58465 
780 1 0.582783 -0.115243 0.138265 0.609947 
4264 2 -0.379971 -0.949871 -1.39919 1.73331 
4185 2 0.152985 -0.0613917 0.151708 0.224029 
2838 1 0.234622 -0.414782 0.154584 0.500987 
3257 1 -0.193708 0.426599 -1.13211 1.22522 
265 1 0.183087 0.552106 -0.0270198 0.582298 
2710 1 0.541457 -0.227492 -0.0239521 0.587794 
3313 1 0.315321 -0.0392584 -0.242943 0.399987 
3333 1 0.0268245 -0.330501 -0.63316 0.714732 
306 1 0.309879 0.492105 -0.399298 0.70543 
3573 2 -0.603675 0.671613 -0.7116 1.14972 
228 1 0.0914899 -0.970353 -0.208071 0.996618 
2365 1 0.197894 0.289743 -0.0737385 0.35854 
389 1 0.404992 0.278109 -0.162049 0.517323 
2873 1 0.532603 -0.518507 0.290439 0.798042 
3249 1 -0.177823 -0.00829164 -0.185516 0.257111 
903 1 0.84993 -0.821206 0.00515867 1.18186 
4097 2 1.0262 0.456911 -0.501101 1.23003 
327 1 0.559507 -0.422237 0.20525 0.730383 
809 1 -0.821662 -0.565661 0.157755 1.00994 
3483 2 0.779518 -0.804899 0.231544 1.14417 
1367 1 -0.316581 0.439585 -0.428726 0.690843 
3582 2 -1.35032 2.10373 0.396328 2.53103 
206 1 0.458727 -0.813338 -1.4022 1.68467 
462 1 0.272926 -0.303923 0.155729 0.43716 
2966 1 -0.12352 -0.161106 -0.33011 0.387537 
750 1 -0.383265 0.803817 0.533387 1.03803 
3539 2 -1.20223 -0.365478 -0.852324 1.51835 
1145 1 -0.672444 -0.448024 -0.720069 1.08232 
449 1 0.187059 0.214907 -0.232943 0.36802 
1285 1 0.26753 0.538383 0.088315 0.607641 
2890 1 0.0680259 0.372864 0.236825 0.446924 
3209 1 0.499386 0.266861 -0.0201891 0.566577 
3409 1 0.125523 -0.531232 -0.355619 0.651482 
4318 2 -0.516558 -0.115349 -0.00375754 0.529294 
2959 1 1.13611 -0.226395 1.06929 1.57651 
3022 1 1.06677 0.766572 0.00328299 1.31364 
3227 1 1.51935 0.287052 -0.3899 1.59463 
974 1 -1.10376 -0.876706 0.913101 1.67948 
3197 1 0.21369 0.405955 0.392742 0.603911 
356 1 -0.452336 -0.00759152 0.384055 0.593434 
2732 1 0.413164 -0.0419626 0.0815151 0.423214 
4056 2 -1.56656 -1.72613 -1.43415 2.73686 
373 1 0.464685 0.551525 -0.189182 0.745588 
4146 2 -2.42257 0.157482 -0.37531 2.45652 
1212 1 -0.457539 -0.306059 -0.281139 0.618105 
309 1 0.156443 -0.500051 -0.168437 0.55036 
398 1 -0.444775 0.331627 0.161906 0.57794 
3404 1 0.565182 0.42459 0.0767508 0.711054 
412 1 -0.331223 0.26255 0.30087 0.51881 
394 1 -0.0969641 -0.0832066 -0.224578 0.258381 
836 1 -0.105561 -0.217091 -0.217694 0.325057 
2696 1 0.508462 -0.0853406 0.151686 0.537425 
4297 2 1.03708 1.66421 -0.13432 1.96549 
3785 2 -1.19906 -0.992884 0.651141 1.68747 
3319 1 0.323946 -0.416619 0.241366 0.580319 
457 1 -0.598361 0.540734 0.335958 0.873669 
3093 1 -0.764648 0.209318 -0.547337 0.963368 
3360 1 -0.0817374 0.188255 0.411695 0.460015 
3324 1 -0.00511519 -0.245321 0.0585589 0.252266 
3095 1 0.216855 -0.0777116 -0.805832 0.838111 
2745 1 -0.00193502 0.136522 0.0256375 0.138922 
94 1 -0.268146 0.51443 -0.527199 0.783887 
4225 2 0.262057 0.645388 -0.234925 0.735112 
3379 1 0.696461 -0.357586 0.548242 0.955769 
3679 2 -0.334345 -1.8515 1.90216 2.67546 
3150 1 1.17541 1.59709 -1.71384 2.62098 
3337 1 0.518705 -0.759787 -0.00497987 0.919976 
3422 1 0.443807 0.594893 -0.825443 1.11005 
3251 1 0.405596 -0.124992 -0.290217 0.514157 
601 1 0.111396 0.175694 0.0293916 0.210098 
1313 1 1.06594 -0.866713 -0.189774 1.38688 
353 1 0.354489 0.0866262 -0.0367204 0.366763 
3617 2 0.323605 0.108284 -0.0860019 0.351912 
71 1 0.352855 0.185229 -0.138088 0.421764 
962 1 -0.606167 0.36158 -0.547558 0.893308 
4263 2 1.5612 -0.231441 0.799284 1.76912 
915 1 -1.0129 0.386986 0.240325 1.11062 
2628 1 0.42818 0.438001 -0.59179 0.851704 
3676 2 0.330151 0.515756 0.026259 0.612938 
3668 2 -1.34299 0.0734373 0.283908 1.37464 
943 1 -0.0448292 -0.234588 0.404509 0.469754 
460 1 0.616251 0.0448007 -0.442684 0.760093 
499 1 0.277836 0.658145 -0.119292 0.724278 
838 1 0.0414151 0.529507 -0.262993 0.59267 
1314 1 0.94441 0.222433 0.297834 1.01493 
388 1 -0.0805236 0.555402 0.0527795 0.563685 
375 1 -0.384716 -0.58924 0.111818 0.71254 
439 1 0.615684 0.804829 -0.331911 1.06629 
291 1 0.825137 0.0207906 0.252775 0.863237 
4309 2 -0.0761649 -0.769834 -0.0737787 0.777103 
3571 2 -2.36319 -0.533729 -0.774914 2.54363 
1373 1 -1.38135 -1.18416 -0.635502 1.92723 
3293 1 -0.41819 0.230646 0.505487 0.695412 
3301 1 -0.624093 0.232549 0.273059 0.719814 
901 1 -0.217575 -0.52873 0.223053 0.613715 
37 1 -1.25147 0.0901664 -0.143515 1.26289 
392 1 -0.324868 0.278876 0.454823 0.62464 
792 1 -0.459984 -0.263359 0.614835 0.811767 
318 1 -0.735038 1.13959 -1.02287 1.69859 
382 1 0.447736 0.277937 -1.37555 1.47304 
3314 1 -1.33642 0.0121952 -0.208496 1.35264 
490 1 0.453073 -0.441773 -0.677631 0.927158 
3266 1 0.716444 0.247683 -0.381148 0.848477 
3180 1 -0.55085 -0.514905 -0.174106 0.773871 
2771 1 0.797183 -0.86824 0.893081 1.47883 
3392 1 -1.00189 0.479568 -0.0832208 1.11387 
3368 1 0.826703 -0.822942 -0.453636 1.25158 
614 1 -0.677538 -0.277986 0.685972 1.00344 
771 1 0.108213 -0.173729 -0.291805 0.35643 
2479 1 0.209882 -0.57764 -0.900004 1.08983 
3916 2 -1.61472 -2.11147 -0.641391 2.73441 
4284 2 -0.566206 0.480313 0.974637 1.22524 
3303 1 0.445765 0.0531785 -0.0861607 0.457119 
3561 2 -0.327292 0.376656 -0.84222 0.97894 
3320 1 -0.555677 0.329945 -1.03568 1.22077 
702 1 -0.616483 0.046573 -0.0668623 0.621845 
4290 2 0.681875 0.391655 -0.12624 0.796419 
4198 2 -1.29565 -0.146363 -0.0883585 1.30688 
951 1 0.816124 -0.313335 -0.388788 0.956762 
3380 1 -0.0866271 0.207383 -0.0317475 0.22698 
1304 1 0.242954 -0.102259 -0.047465 0.267837 
626 1 0.118022 -0.485615 0.373747 0.62405 
2848 1 0.443103 -0.351389 -0.760076 0.947381 
431 1 -0.130058 0.0651734 0.447473 0.470526 
1172 1 0.212458 -0.119605 0.0913517 0.260363 
3568 2 0.20104 -0.009398 0.0230114 0.202571 
4271 2 0.194106 0.0270185 -0.0343498 0.198965 
652 1 0.501474 0.175044 0.336533 0.628786 
248 1 0.197787 0.0961724 0.0560737 0.226965 
3009 1 0.426749 0.218663 -0.0569889 0.482883 
854 1 -0.186152 -0.239572 0.232867 0.382459 
3419 1 0.0871259 0.117433 0.511945 0.532418 
3611 2 0.299597 2.02479 0.591206 2.1305 
3643 2 -0.0618303 -0.231476 -0.673437 0.714787 
3526 2 1.04965 -0.0273663 -0.453031 1.14357 
908 1 0.167177 -0.307965 0.587532 0.684094 
325 1 0.397044 -0.0839687 -0.00922922 0.405931 
292 1 0.131714 -0.302573 0.0172735 0.33045 
3504 2 0.997032 -0.178466 0.609351 1.18205 
3444 1 0.0278641 -0.385704 -0.595926 0.710402 
866 1 -0.389053 0.583139 0.382245 0.798452 
3331 1 0.211106 -0.245232 -0.154249 0.358465 
517 1 0.296082 0.118256 -0.19826 0.375441 
4307 2 0.410913 -1.0793 -0.972357 1.50971 
874 1 0.11737 -0.417219 -0.576458 0.721215 
980 1 0.161108 -0.612911 0.0912778 0.640271 
225 1 0.290824 -0.308749 0.326697 0.535384 
177 1 -0.468022 -0.0981322 -0.554203 0.731994 
430 1 0.224462 -0.217057 0.22735 0.386245 
4182 2 -0.417188 1.09237 -0.0889128 1.1727 
496 1 -0.499128 0.122664 0.231615 0.563756 
3219 1 0.615825 -0.602864 -0.651743 1.08049 
810 1 -0.140969 -0.0421561 0.0395444 0.152359 
2819 1 -0.0907589 -0.433461 -0.313638 0.542673 
2973 1 1.1601 -1.10604 0.0632733 1.60411 
416 1 0.282772 -0.504591 0.282843 0.643873 
964 1 -0.341804 -0.827011 -1.67645 1.90033 
3070 1 0.916745 -0.972439 -0.157353 1.34567 
365 1 0.233779 -0.47629 0.126495 0.545441 
4098 2 0.21424 0.0644892 0.293296 0.36889 
295 1 -0.462422 -0.490523 -0.217126 0.70823 
957 1 0.618218 -0.378792 -0.677101 0.99204 
474 1 0.0813114 -0.28065 -1.1243 1.16164 
3524 2 -1.69657 -1.05868 1.13634 2.30009 
3013 1 1.49093 -0.194798 0.135241 1.50967 
3291 1 -0.0170155 0.169041 -0.0997662 0.197022 
160 1 0.379248 -0.00536407 0.602157 0.711654 
2993 1 -0.117227 -0.0818623 -0.10218 0.17574 
279 1 0.546881 0.140735 -0.156356 0.585946 
825 1 -0.416936 -0.659002 -0.121838 0.789281 
783 1 -0.674908 0.567785 0.715398 1.13564 
4285 2 -0.791779 -0.0902358 -0.691312 1.05497 
3944 2 0.211428 0.512856 0.235369 0.602596 
968 1 -0.154072 0.0416383 0.078088 0.177679 
3433 1 0.159491 0.0542042 0.0758434 0.184737 
1409 1 0.216503 0.210038 -0.552232 0.629246 
917 1 0.0622087 -0.0607141 -0.0652123 0.108668 
4028 2 -0.160585 0.119586 0.134664 0.241294 
274 1 -0.207708 -0.218664 0.307095 0.430423 
3863 2 -0.173663 -0.208475 -0.000243244 0.271332 
1091 1 -0.0190473 -0.179073 0.017876 0.180968 
3396 1 -0.0591152 -0.150713 0.0147118 0.162559 
3674 2 0.412879 -2.2231 1.20376 2.56158 
3322 1 -0.0139017 0.095431 0.104837 0.142447 
2869 1 0.0574812 -0.842816 -0.165952 0.86092 
502 1 0.209798 -0.0329696 0.165625 0.269321 
85 1 0.14654 -0.0672117 0.184944 0.245348 
3420 1 0.639768 -0.427266 -0.584637 0.966261 
3327 1 0.306011 -0.286001 0.566655 0.704654 
3435 1 0.0509631 -0.0864893 0.563932 0.572797 
855 1 0.452839 -0.0374679 0.0663763 0.459209 
1418 1 0.482427 0.0366492 0.469791 0.674375 
2545 1 -0.182741 -0.0816939 0.154234 0.252698 
363 1 -0.260683 -0.451952 -0.171222 0.549121 
875 1 -0.137665 -0.462991 0.197677 0.521908 
1450 1 -0.300076 -0.593621 -0.482694 0.821843 
3559 2 -0.286615 -0.849428 -0.363203 0.96726 
4237 2 0.291286 0.221336 -0.273113 0.456539 
440 1 -0.197502 -0.469719 -0.570381 0.764839 
347 1 0.254981 0.028445 -0.164342 0.304684 
830 1 -0.0177413 -0.261917 0.343744 0.432522 
3378 1 0.22718 0.0830686 0.368647 0.440921 
442 1 -0.286905 -0.199922 -0.293777 0.456715 
937 1 -0.0238341 0.0784897 0.15278 0.173408 
1289 1 -0.341014 1.16936 -0.709179 1.40948 
501 1 -0.0340784 -0.0118891 0.184439 0.187938 
314 1 0.164878 0.206478 0.0575053 0.270416 
795 1 0.213696 -1.35041 0.0756977 1.36931 
3397 1 -0.437304 -0.48147 0.000275497 0.650421 
423 1 0.22332 0.0588786 -0.155646 0.278504 
647 1 0.340948 0.53363 -0.259712 0.684439 
3799 2 -0.245037 1.23891 0.686383 1.43738 
1337 1 0.201534 -0.557911 0.00402271 0.593209 
486 1 0.563414 0.0202357 -1.58748 1.68462 
183 1 -0.977941 0.142263 0.0444104 0.989232 
4152 2 -1.33044 1.20637 -0.827858 1.97756 
757 1 -0.198539 -0.153588 0.101433 0.270732 
419 1 0.917084 -0.0695515 -0.286017 0.963165 
3312 1 -0.101197 -0.201653 -0.036358 0.228531 
3278 1 -0.0843591 -0.11125 0.150927 0.205602 
781 1 -0.0419869 0.19223 -0.559007 0.592625 
3200 1 -0.177265 0.286569 -0.225869 0.405661 
1430 1 -0.336021 -0.355446 -0.0993152 0.499114 
822 1 -0.335588 -0.294847 -0.0437811 0.448855 
3961 2 1.23777 -2.36691 -0.633454 2.74511 
107 1 -0.197536 0.402066 0.885761 0.992598 
307 1 -0.13847 -0.0929786 -0.59534 0.618263 
2687 1 -0.157006 -0.264355 0.249932 0.396232 
3383 1 0.0103523 0.186143 0.187466 0.264386 
699 1 -0.110506 0.236422 -0.303667 0.4004 
504 1 -0.24031 -0.226785 0.37817 0.502188 
329 1 -0.107599 0.155684 0.380201 0.424697 
113 1 -0.211458 -0.00774765 0.316581 0.380786 
3240 1 -0.352734 -0.369803 -0.184862 0.543461 
3678 2 -0.818785 0.122966 -0.585143 1.01387 
4143 2 1.08245 -0.980888 -0.081651 1.46305 
421 1 -1.16614 1.15519 0.288704 1.66664 
443 1 -0.110405 -0.00354361 0.301167 0.320786 
581 1 0.0927979 -0.143518 0.152483 0.229041 
393 1 -0.250207 -0.246268 -0.809986 0.882796 
2795 1 -0.067027 0.203715 0.396223 0.450539 
3541 2 -0.892834 0.638383 -0.0341238 1.09811 
786 1 -0.375848 -0.251376 0.164489 0.481153 
3192 1 0.85706 0.371946 -0.432846 1.02968 
402 1 0.262679 0.295339 -0.291556 0.491152 
800 1 -0.260112 0.192989 -0.363597 0.486935 
772 1 -0.725787 -0.0162641 -0.597022 0.93993 
3545 2 0.127849 0.354419 -1.09813 1.16097 
319 1 0.0338197 -0.0124836 0.375791 0.377516 
406 1 -1.10289 0.198744 -0.792994 1.37284 
1723 1 -0.746903 -0.0988497 0.541281 0.927696 
2814 1 -0.682798 0.0248402 -0.537119 0.869096 
4154 2 -1.19783 0.478352 -0.662113 1.44983 
31 1 -0.972607 0.546771 -0.386845 1.18092 
793 1 0.82608 -0.146776 -0.402105 0.930398 
92 1 -0.220426 -0.60887 -0.583069 0.871366 
268 1 -0.0236951 -0.146122 0.940847 0.952421 
2656 1 0.0255103 0.0399797 0.883009 0.884281 
801 1 -0.00560531 -0.0144895 0.0432323 0.0459391 
461 1 -0.227114 0.00322425 0.232301 0.324892 
4163 2 -0.644886 -0.590704 0.599309 1.06018 
349 1 0.0055661 0.0593515 0.370123 0.374893 
899 1 0.00531174 -0.0644074 0.197405 0.207714 
4239 2 1.43771 1.72248 -1.18415 2.53696 
840 1 -0.0504385 0.059243 -0.186271 0.201868 
3339 1 -0.207656 0.732752 -0.835665 1.13066 
3371 1 0.0183562 -0.112792 -0.231819 0.258455 
3436 1 -0.189084 -0.573372 -0.15835 0.624166 
2884 1 0.395071 -0.476353 -0.263526 0.672636 
3476 2 0.274988 -0.752538 -2.26681 2.40424 
4109 2 -0.30241 -0.219374 0.966478 1.03617 
436 1 -0.104335 -0.387817 0.513961 0.652261 
367 1 0.407467 0.0118879 -0.135733 0.429644 
4280 2 1.1416 -0.890215 0.374925 1.49543 
2776 1 0.164852 -0.0296895 -0.263544 0.31227 
433 1 -0.0759312 -0.0677147 -0.181462 0.208037 
907 1 -0.119766 0.0827496 -0.286903 0.321722 
606 1 0.354614 -0.846865 -0.258389 0.95378 
128 1 -0.171327 -0.371347 0.647746 0.766045 
891 1 -0.192156 0.463335 -0.243204 0.557451 
1641 1 -0.353569 0.388857 -0.28736 0.598997 
3586 2 0.43967 0.585351 0.0316824 0.732768 
522 1 0.334064 0.368137 0.0221653 0.497609 
1535 1 -0.0896821 -0.0576235 0.111831 0.154498 
631 1 -0.15742 0.384356 -0.0306093 0.41647 
683 1 0.0348492 0.143727 0.438489 0.462757 
3600 2 -0.664939 0.100043 -0.309395 0.740188 
712 1 0.717531 -0.224828 -0.648773 0.993128 
166 1 -0.923634 -0.14931 0.339308 0.99525 
3844 2 -0.137312 0.925083 -0.175272 0.9515 
573 1 0.00907288 0.590057 -0.000540511 0.590127 
565 1 -0.516555 -0.0232228 -0.174486 0.545723 
4319 2 -0.141688 -0.943991 0.0632421 0.956658 
577 1 0.129583 0.308966 0.181317 0.380957 
3173 1 -0.385367 0.291396 0.353755 0.598801 
3418 1 0.151512 0.335881 0.185161 0.412379 
3616 2 -0.480119 0.283677 0.492026 0.743691 
3575 2 -0.608683 0.535333 -0.363076 0.888201 
1474 1 0.00373861 0.505139 0.0715771 0.510199 
2057 1 -0.110148 0.279534 0.171249 0.34583 
1053 1 -0.0760215 -0.895967 -0.336344 0.960033 
621 1 -0.223238 0.140554 -0.263537 0.372884 
1083 1 0.62629 -0.542176 -0.406251 0.922623 
555 1 -0.00274963 0.491244 -0.218174 0.53752 
65 1 0.831198 -1.32518 -0.447769 1.62711 
4287 2 0.74277 2.5076 -0.965458 2.78781 
617 1 0.431396 0.17141 -0.884507 0.998918 
401 1 -0.129291 0.138585 0.347143 0.395513 
740 1 0.145714 0.0705095 0.222315 0.275006 
3572 2 0.0169794 0.244318 0.431828 0.496442 
1118 1 0.697297 -0.668582 0.598725 1.13653 
266 1 1.17402 -0.0649188 -0.110444 1.18099 
4273 2 -1.10646 -1.8349 -1.83484 2.82095 
3335 1 0.845711 0.186608 -1.12964 1.42343 
289 1 0.29214 0.253586 0.180083 0.42671 
959 1 -0.131133 0.057778 -0.00423855 0.14336 
1093 1 0.713191 0.940631 0.41463 1.25114 
1217 1 0.100543 0.149467 0.0294926 0.182535 
3063 1 0.194938 0.086687 -0.327166 0.390581 
739 1 -0.0162282 0.114717 -0.124204 0.169853 
516 1 -0.173042 0.0356174 0.360356 0.401333 
1454 1 0.785626 1.44606 0.426328 1.70001 
865 1 0.40981 0.181131 -0.724999 0.852278 
3699 2 0.660201 -0.331777 -1.44896 1.62647 
1544 1 -0.338027 0.383707 0.0753851 0.516891 
4116 2 0.921204 1.36761 -0.0230357 1.64909 
1934 1 0.467109 -0.255693 0.210089 0.572457 
708 1 -0.0152554 -0.987226 -0.155597 0.99953 