ITEM: TIMESTEP
2200000
ITEM: NUMBER OF ATOMS
4320
ITEM: BOX BOUNDS pp pp pp
0.0000000000000000e+00 1.9309999999999999e+01
0.0000000000000000e+00 1.9309999999999999e+01
0.0000000000000000e+00 9.6549999999999994e+00
ITEM: ATOMS id type c_displacement[1] c_displacement[2] c_displacement[3] c_displacement[4] 
381 1 -0.195728 0.149315 0.669481 0.713308 
677 1 -0.831212 -0.802375 0.193719 1.17143 
303 1 -0.109501 -1.01913 -0.580889 1.17816 
171 1 0.777862 -0.0280671 -0.456301 0.902257 
3701 2 0.57011 -0.42262 2.13826 2.25295 
3776 2 -0.796146 1.89956 -0.336459 2.08695 
342 1 3.25508 -0.112654 0.0632216 3.25765 
327 1 1.06106 -0.213353 -0.0827219 1.08545 
2823 1 1.63222 -1.30276 -0.637875 2.18362 
3196 1 -1.20016 -0.372209 -0.586935 1.38687 
3513 2 -0.617623 -0.539481 1.25148 1.49623 
240 1 0.201239 0.786925 0.775271 1.12285 
66 1 0.0994414 0.0932672 0.506564 0.52459 
400 1 0.25784 0.149955 0.186386 0.351721 
817 1 -0.395827 0.729018 0.0275454 0.830003 
2939 1 -0.198273 0.124333 1.69806 1.71411 
727 1 0.535499 -0.288288 -1.11309 1.2684 
3877 2 0.0683228 -1.35781 -0.0121166 1.35958 
3586 2 0.0153025 1.03825 0.23349 1.06429 
3230 1 0.671125 0.283425 -0.328225 0.799043 
1991 1 0.413044 -0.414447 0.582632 0.825731 
3533 2 -1.09962 -1.12857 -2.14981 2.66543 
87 1 0.453477 0.890088 -0.318926 1.04862 
722 1 -0.663867 -0.286022 -1.20206 1.40266 
58 1 -0.195551 -0.539063 -0.492703 0.756032 
65 1 0.0183699 -2.18832 -0.703092 2.29857 
639 1 0.980396 -0.45237 -0.631885 1.25104 
2056 1 1.3464 -1.05114 -0.891406 1.92673 
3092 1 -0.849606 0.155205 0.663758 1.08926 
4177 2 0.816991 -0.190414 -1.5115 1.72869 
190 1 0.660936 0.17922 -0.292529 0.744667 
28 1 0.88189 0.483426 -0.649809 1.19736 
2495 1 0.0675367 0.0948697 -1.6009 1.60513 
688 1 0.224518 2.28728 -0.129547 2.30192 
129 1 2.31902 -1.44642 -0.456321 2.77096 
823 1 1.24304 -0.656094 -0.625045 1.53827 
562 1 0.887807 -0.705896 -0.543206 1.2576 
2660 1 1.18553 -0.821522 -1.10278 1.81562 
12 1 0.0808352 0.195719 -1.21429 1.23262 
2453 1 0.0608423 -0.312275 -1.56354 1.59558 
4214 2 0.0986913 -0.676574 0.604775 0.912823 
594 1 0.585721 0.196751 -1.20402 1.35331 
121 1 1.60582 0.490241 -0.148939 1.68558 
354 1 0.196477 -0.283757 0.646812 0.733135 
3627 2 1.41111 2.1437 -0.262997 2.57989 
70 1 1.60274 -0.146191 -0.311341 1.63923 
3743 2 0.31858 1.61417 -2.85665 3.29659 
3393 1 -0.151147 -1.1099 -0.0240547 1.1204 
80 1 -0.431877 0.180016 1.29435 1.37632 
532 1 -0.489261 -0.219041 0.0370977 0.537337 
473 1 -0.465524 -0.350942 -0.217979 0.622405 
3401 1 -0.204451 -0.348487 0.804139 0.899935 
710 1 0.307555 0.45832 0.792389 0.965674 
197 1 -0.177119 0.535076 -0.351458 0.664229 
626 1 -0.087057 0.276397 1.08047 1.11866 
484 1 1.77499 0.23774 1.00303 2.05261 
2838 1 0.697154 0.13122 0.485023 0.859354 
2945 1 0.142432 -0.78132 0.971299 1.25466 
3251 1 -0.315543 1.19323 -1.36211 1.83813 
3455 1 1.71159 0.248755 1.48156 2.27737 
4116 2 -0.370421 1.67151 0.61592 1.81948 
3135 1 0.138929 0.5095 -0.0241772 0.528655 
2983 1 0.967762 -0.782297 0.0968727 1.24817 
3189 1 0.583606 0.900902 1.04428 1.49758 
4053 2 0.726107 0.407572 1.18315 1.44679 
1415 1 -0.0681881 0.360442 -0.0408553 0.369103 
53 1 0.0231523 0.404983 -1.19447 1.26147 
753 1 0.0400144 0.737409 -1.01875 1.25826 
3002 1 0.500549 0.44313 -0.815052 1.05415 
4194 2 -1.59103 2.12795 -2.21847 3.46138 
527 1 0.638242 0.276905 -0.301412 0.758207 
3353 1 -1.31784 -1.26955 0.273682 1.85024 
2596 1 -1.4293 -0.617188 -0.998972 1.8498 
1178 1 1.34441 0.254818 0.18103 1.38027 
3844 2 -1.43954 1.82531 1.38546 2.70621 
96 1 -0.134166 0.620632 -0.238838 0.678401 
110 1 -0.938228 0.601171 1.13358 1.58955 
546 1 0.109943 2.40075 -1.02883 2.61423 
4291 2 0.319745 -1.81618 -1.59024 2.43508 
180 1 -0.453514 -1.03728 0.940543 1.47182 
3651 2 0.290775 2.34043 0.619294 2.43838 
4170 2 -0.257832 -1.19656 -0.455079 1.30588 
49 1 -0.709059 0.510566 -0.262981 0.91247 
106 1 0.196205 0.415094 1.29244 1.37156 
167 1 0.491043 1.35744 -0.790735 1.64591 
2591 1 0.110346 0.850062 -0.679808 1.09404 
4169 2 -0.259162 0.408795 -1.87585 1.93729 
3055 1 0.0185127 0.997547 -0.611352 1.17013 
3232 1 0.115427 0.658173 -1.06747 1.25937 
3152 1 0.159909 0.424853 -1.2479 1.3279 
339 1 -1.24453 -0.18384 -0.664606 1.4228 
4289 2 -0.254479 -0.78571 -1.16693 1.42963 
1271 1 -0.693164 0.332589 -0.651061 1.00746 
988 1 -0.337745 0.842607 -0.463794 1.01939 
210 1 0.93724 0.19806 0.25074 0.990211 
118 1 0.136701 -0.654154 0.186462 0.693811 
203 1 -0.23512 0.265098 0.0456595 0.357272 
3244 1 0.359499 0.486883 -0.260443 0.658881 
3006 1 0.444077 0.668727 -0.462143 0.92627 
3346 1 -0.208349 -0.736413 -1.1757 1.40285 
3632 2 -0.457131 -0.744132 0.135545 0.883784 
4278 2 -0.911316 -0.512466 -0.447341 1.1372 
206 1 0.412976 -1.47863 -1.08621 1.88062 
231 1 -0.0578216 0.298409 0.240495 0.387594 
100 1 -0.573064 -0.691534 -0.313344 0.951213 
390 1 -0.167006 0.272996 0.286257 0.429373 
536 1 0.0685723 -0.0986949 0.697675 0.70795 
675 1 -1.0831 0.231872 -2.1554 2.42335 
29 1 -0.304334 -0.238132 0.589179 0.704598 
3464 2 0.66956 -1.33014 -2.18227 2.64195 
553 1 -0.807101 0.94873 -0.451426 1.32487 
2735 1 0.706399 0.14334 0.321476 0.789236 
471 1 0.604405 0.625808 -0.857404 1.22151 
496 1 -0.214747 1.03079 -0.335939 1.10521 
3570 2 2.11373 -0.0209777 -0.914615 2.30322 
569 1 -0.119338 -1.13712 0.650708 1.31556 
4071 2 -1.33862 1.40601 1.78043 2.63414 
564 1 -2.16408 -0.265226 -2.22734 3.11683 
894 1 -0.111961 1.26247 1.24698 1.77801 
529 1 0.944553 0.979759 -0.786027 1.57161 
3467 2 0.646615 1.04841 0.377128 1.28822 
140 1 0.170536 0.273178 -0.251703 0.408733 
317 1 0.250442 -0.198036 -0.629594 0.705924 
233 1 0.184397 1.1411 -0.117371 1.16184 
437 1 -0.535454 1.53772 0.174784 1.63764 
3080 1 1.54071 0.241067 -0.941301 1.82152 
725 1 1.09155 1.27721 1.37177 2.16898 
54 1 0.747273 -0.641546 -2.49586 2.68316 
550 1 -0.200621 0.328637 0.0956577 0.396738 
4228 2 -1.28395 0.559336 -1.16734 1.8232 
93 1 0.274024 0.348803 1.19599 1.27559 
147 1 -0.759994 -0.427671 0.240928 0.904731 
1888 1 -0.741059 0.74986 -0.0139719 1.05435 
3786 2 0.100533 -0.628409 -0.720606 0.961393 
2936 1 -0.168387 0.110276 -0.519768 0.557382 
3023 1 0.123829 -0.477803 0.344116 0.601702 
3182 1 1.40063 0.882485 0.486404 1.72544 
821 1 -1.26423 -0.652151 -1.61741 2.15397 
718 1 -0.0201357 3.12081 0.434508 3.15098 
21 1 0.556261 0.675298 1.39972 1.65065 
330 1 -0.732569 -0.105299 -1.30064 1.49646 
413 1 -0.775949 0.200104 -0.458349 0.923159 
43 1 0.0160249 0.393044 0.253259 0.467847 
3841 2 -0.695285 0.335535 -0.416024 0.876973 
151 1 -0.539243 0.756632 -0.37524 1.00204 
2461 1 0.416697 -0.0098134 -0.222578 0.472518 
23 1 -0.255025 0.221369 -0.244273 0.416787 
3730 2 -0.374575 -0.0038258 -0.456182 0.590274 
3164 1 -0.309384 1.94206 -1.63953 2.56035 
859 1 0.623483 0.875269 -0.174938 1.08877 
103 1 -0.655093 0.000139413 -0.645651 0.919789 
3736 2 0.251846 0.314319 -2.12797 2.16575 
338 1 -0.205005 0.778032 -1.39391 1.60945 
3199 1 0.0940702 0.0734737 -0.146074 0.188641 
3478 2 0.732251 -0.0686387 -0.984272 1.2287 
3335 1 0.440212 0.513253 -1.30105 1.46627 
479 1 0.476229 0.621905 -0.775481 1.10224 
4257 2 1.97565 1.79404 1.02574 2.85901 
2960 1 -0.475227 -0.519528 0.666177 0.9693 
759 1 -0.091717 -0.923839 -0.831854 1.24654 
517 1 -0.363567 0.675476 0.183741 0.788802 
825 1 -0.269147 0.1094 0.292809 0.412487 
3643 2 -0.180365 0.910856 -0.994684 1.36073 
3188 1 1.11705 0.836602 0.0288629 1.3959 
343 1 1.03216 0.486132 -0.800697 1.39384 
3682 2 -1.32076 2.30808 -0.799373 2.7768 
3537 2 0.295305 -0.929577 -0.626202 1.15907 
3522 2 -1.89474 1.72516 -1.87658 3.17613 
609 1 0.0147348 -0.0865448 0.73605 0.741267 
2494 1 0.712682 -0.437324 -0.216806 0.863813 
1133 1 0.843607 0.155734 0.190452 0.878748 
75 1 1.89541 -0.95168 0.705764 2.23526 
896 1 -1.0905 0.527118 0.564358 1.33624 
2968 1 -0.192868 -0.587534 -0.177473 0.643344 
3971 2 2.56939 0.744749 -1.18142 2.92441 
91 1 2.43669 -0.542251 0.500759 2.54603 
98 1 -0.516539 1.1904 1.16785 1.74578 
72 1 -0.94324 -0.360014 0.961863 1.39445 
133 1 0.308097 1.55491 -0.490703 1.65935 
185 1 0.608115 1.0028 -0.169513 1.18497 
4052 2 1.90873 1.10241 0.0151429 2.20427 
1130 1 -0.352146 1.32874 0.886455 1.63565 
724 1 -1.9938 0.454684 0.436794 2.09111 
604 1 -1.03753 0.517019 0.546057 1.28139 
3041 1 0.844671 1.46111 0.0685769 1.68908 
2996 1 -0.554519 0.649911 -1.09395 1.38802 
193 1 -0.38455 0.330713 0.681448 0.849483 
665 1 -0.729448 0.814227 -0.220154 1.11514 
1215 1 -0.610985 0.567422 0.589036 1.0209 
222 1 -1.68437 0.459853 0.0701693 1.74742 
4212 2 0.381771 1.17132 0.00913416 1.232 
234 1 -0.447976 -0.164142 -0.467443 0.667929 
348 1 -1.2463 -0.0922862 -1.04018 1.62596 
3279 1 -0.671815 0.538548 -0.48247 0.986989 
178 1 -0.19499 0.72439 -0.0714396 0.753569 
2981 1 -1.41977 1.06246 -0.861149 1.97133 
3477 2 0.828455 -0.534842 -2.06826 2.29131 
3369 1 -0.719265 -0.0243529 -0.704229 1.00691 
3216 1 -0.632114 0.696838 -0.308975 0.990261 
237 1 -0.429533 0.627418 -0.474346 0.89619 
379 1 -0.499619 -0.275466 0.0628614 0.57398 
551 1 -0.514896 0.377983 0.0497032 0.640671 
640 1 -0.354925 0.0914152 -1.14561 1.20281 
3440 1 1.09499 0.864235 -0.626365 1.52913 
387 1 1.17177 -0.210824 -0.453502 1.27403 
600 1 -0.619399 0.692585 -0.423502 1.02112 
4217 2 -0.448676 0.733307 -1.03479 1.3453 
3037 1 -0.503475 0.293522 -0.378386 0.694851 
3007 1 0.604283 0.623692 -1.76234 1.96469 
4253 2 0.104975 0.682395 -0.410909 0.803448 
717 1 0.0674345 -0.784174 0.190214 0.809727 
3130 1 -0.421566 -0.231066 0.37391 0.60903 
3354 1 0.352693 0.565499 -0.214779 0.700223 
3394 1 -1.67896 -0.264834 -0.560371 1.78971 
747 1 -0.515421 -0.245892 0.602441 0.830095 
3307 1 -1.49038 -0.921688 0.605176 1.85391 
2931 1 -0.687566 0.341272 0.547891 0.943079 
508 1 -0.377777 -0.395548 0.326195 0.636849 
826 1 -1.00073 -0.795764 -0.110661 1.28334 
1487 1 -1.34844 0.348279 -0.0175884 1.3928 
211 1 0.31777 -0.953459 -0.929731 1.36911 
3256 1 -0.698334 -0.597991 -1.18989 1.5037 
3640 2 -3.62603 -1.69963 0.221931 4.01075 
1480 1 0.48097 0.575119 1.20671 1.42065 
3576 2 -1.41444 0.863503 -2.13432 2.70215 
40 1 -0.0272777 -1.11474 0.467891 1.20926 
3411 1 -0.782018 0.75909 0.642838 1.26531 
958 1 -1.18939 1.3456 -0.167997 1.80375 
46 1 -1.08763 0.821751 -0.446942 1.43456 
729 1 -0.573192 -0.349368 1.30473 1.46729 
3514 2 0.909806 0.245731 -2.1825 2.37728 
835 1 0.444186 1.38751 -0.500153 1.54034 
593 1 0.519447 0.696611 2.66326 2.80144 
157 1 -0.460543 0.850009 0.000948204 0.966756 
812 1 -2.77475 -0.575415 -1.11344 3.04468 
1179 1 -0.782574 -0.296797 -0.511604 0.980943 
4050 2 -2.09081 -1.60309 0.927326 2.79308 
86 1 -0.22125 0.766208 0.415386 0.899206 
3620 2 -0.399753 0.940616 0.157086 1.03404 
241 1 -1.99155 0.63253 0.616434 2.17862 
3599 2 -1.98784 0.780513 -0.247833 2.14991 
803 1 -0.780039 1.0288 1.27391 1.81376 
721 1 -0.121867 0.668073 1.3679 1.5272 
2988 1 -0.54602 0.198919 -0.121305 0.593651 
2004 1 0.323703 0.305266 -1.04878 1.13925 
4173 2 -0.208157 -0.668336 -0.831192 1.08668 
540 1 -0.82473 0.671981 -0.174812 1.0781 
3030 1 0.293258 0.96518 0.02593 1.00908 
1036 1 1.0696 -0.650362 -0.205518 1.26857 
89 1 1.24024 1.16218 3.218 3.63928 
27 1 -1.07141 0.379818 0.856238 1.42314 
3139 1 -0.136404 -0.0110773 -0.115965 0.179379 
3479 2 -0.0753161 0.577975 -0.607417 0.841833 
6 1 -0.728717 0.617098 -0.494016 1.07512 
644 1 -0.161185 0.0545409 -0.745844 0.765009 
3607 2 -0.102216 -0.333574 -0.329013 0.479551 
742 1 0.0725927 0.919452 -0.888434 1.28062 
4269 2 -0.498418 -0.234048 0.477672 0.728951 
2934 1 -0.155176 -0.0656223 0.299502 0.343638 
235 1 -0.291038 -0.0125307 -0.193943 0.349963 
3322 1 -0.409597 -0.655673 -0.283981 0.823603 
352 1 0.211461 0.142513 -0.467614 0.532624 
3644 2 -0.655501 0.516109 -0.0857797 0.838695 
3056 1 -0.132038 0.269975 -0.148316 0.335139 
245 1 -0.886231 -0.0284187 -0.043809 0.887768 
214 1 -0.269984 0.210684 0.355159 0.493373 
1091 1 -0.212117 -1.66445 0.204093 1.69028 
358 1 -0.793821 -0.0043562 0.186764 0.815507 
3096 1 -0.0236311 0.727935 -0.564573 0.921515 
207 1 -0.741488 0.014015 -0.0683501 0.744763 
181 1 -0.633751 -0.718951 0.299231 1.00403 
3603 2 -1.543 -0.986734 0.771366 1.98734 
1149 1 -0.774981 -0.929478 0.20668 1.2277 
1102 1 0.162829 0.0761096 -0.127457 0.220343 
1160 1 -0.604368 -0.527254 -2.08232 2.23143 
3512 2 -0.447211 -0.13206 0.100433 0.476995 
134 1 -0.708561 -0.285014 1.16821 1.39571 
195 1 -0.543757 -1.14564 0.0879815 1.27118 
312 1 0.249457 -0.295853 -0.296343 0.487419 
587 1 0.378771 -0.928797 0.375821 1.07116 
3057 1 0.517624 0.766601 0.48691 1.04532 
3634 2 0.336774 0.638504 3.7032 3.7729 
685 1 -0.0562854 -0.918171 -0.53698 1.06515 
3003 1 0.298458 -0.0969013 -0.317947 0.446719 
191 1 -0.645713 0.269573 0.267401 0.749078 
2995 1 1.25554 -1.03447 0.110616 1.63057 
602 1 -0.0392165 0.234601 0.348497 0.421931 
733 1 -0.92863 0.0291603 -0.878186 1.27844 
298 1 0.0143552 -0.203401 -1.23707 1.25376 
775 1 0.0912041 -0.867593 -0.492634 1.00186 
182 1 -0.549358 0.718218 -0.757364 1.1795 
2950 1 -0.774561 -0.229775 -0.352366 0.881421 
81 1 -0.905796 0.00905318 0.766271 1.18647 
3118 1 0.116333 -0.435809 -1.12021 1.20761 
920 1 -0.472997 -0.0917459 -0.833596 0.962822 
217 1 0.180857 -0.0809446 -1.05612 1.07455 
3835 2 0.4109 0.378531 -1.9245 2.00396 
657 1 -0.294453 1.27433 -0.879831 1.5763 
690 1 0.182906 0.403674 -0.885989 0.990649 
3024 1 0.782906 -0.168435 -0.626397 1.0167 
215 1 -0.457462 -0.0252568 -0.403216 0.610322 
131 1 0.313915 -0.145688 -0.648802 0.735331 
902 1 -0.24015 1.46884 -0.516368 1.57537 
2926 1 0.0436321 0.287052 -0.53331 0.607225 
3518 2 -0.922189 -0.199938 -0.56809 1.10142 
580 1 -0.450879 -0.161833 0.0418024 0.480863 
3974 2 -1.46272 0.34353 1.35719 2.02473 
563 1 -0.0586253 -0.0363188 0.696698 0.700103 
1278 1 -0.893903 0.869376 0.0818906 1.24963 
3408 1 0.206127 -0.0389899 0.75805 0.786542 
95 1 0.159581 0.673307 0.275817 0.744905 
4089 2 0.9731 0.178061 2.17082 2.3856 
85 1 -0.0739534 -0.168018 0.543626 0.573784 
155 1 -0.726492 1.17513 0.274868 1.40864 
1077 1 -0.284875 0.289362 -0.144167 0.430892 
287 1 -0.168259 -0.889857 -0.254963 0.940831 
221 1 -0.653945 0.296514 -0.446122 0.845333 
694 1 -0.549005 -0.328674 -0.188016 0.666921 
116 1 -0.346701 0.216864 1.46176 1.51789 
504 1 -0.473776 -0.379124 0.664898 0.90016 
4198 2 -2.23181 -0.541246 0.396797 2.33053 
767 1 1.28485 -0.819472 -0.604149 1.63932 
2740 1 0.148861 -0.290536 -0.929566 0.985222 
512 1 0.125568 0.672078 -0.18992 0.709595 
886 1 -0.144261 0.101576 -0.0770468 0.192523 
3549 2 -1.34188 0.900625 -0.249829 1.63529 
1145 1 -0.470979 -0.726151 -0.758325 1.15073 
3531 2 2.37042 -0.803575 -1.07889 2.72555 
300 1 -0.236187 0.45061 -0.463213 0.688041 
3434 1 -0.363197 0.0902811 0.450878 0.585964 
364 1 0.490493 -0.243057 -0.134863 0.56378 
334 1 0.832676 -0.148022 0.444594 0.95547 
478 1 0.141601 -0.385534 -0.783162 0.884325 
3227 1 1.57384 0.301668 -1.01699 1.89796 
3385 1 0.807589 0.0570279 0.482703 0.942578 
635 1 -0.480215 -0.202732 -0.763178 0.924202 
3225 1 0.0440066 -0.797439 -0.176701 0.817966 
3404 1 1.22291 0.280874 -0.174944 1.26688 
4085 2 -2.04078 1.01635 2.49666 3.38099 
362 1 0.0517135 0.0838283 0.248404 0.267219 
836 1 0.502558 -0.647953 -0.936817 1.245 
2848 1 1.03316 -0.174621 -0.758669 1.29364 
3389 1 0.554192 0.655124 -0.476548 0.981537 
2696 1 0.42929 0.168109 -0.382571 0.599092 
357 1 -1.1521 0.464517 -0.496492 1.33776 
433 1 0.209658 -0.270345 0.0094471 0.342246 
308 1 -1.48923 0.252542 0.153012 1.51823 
2710 1 1.27792 -0.31478 -0.483914 1.40226 
265 1 0.517837 0.933784 0.125039 1.07505 
3313 1 0.378833 0.208997 -0.500591 0.661653 
421 1 -1.30599 1.81995 0.777633 2.37119 
3573 2 -0.155313 0.898069 -1.52047 1.7727 
4265 2 2.03602 1.36446 -1.36702 2.8064 
3333 1 0.298868 -0.0728991 -0.379927 0.488856 
3785 2 -0.756113 0.769275 -1.07179 1.5206 
2365 1 0.348146 0.504044 -0.557643 0.828391 
228 1 0.0285651 -0.500787 -0.264198 0.566925 
903 1 0.860641 -0.36515 -0.206734 0.957484 
951 1 0.275351 0.485191 -0.577867 0.803218 
3422 1 0.586974 0.865305 -1.07017 1.49618 
3679 2 0.0727784 -0.640975 1.5282 1.65878 
3249 1 -0.194738 0.212063 -0.660723 0.720727 
205 1 0.0566298 -0.244111 1.32655 1.35001 
2052 1 1.00806 0.69813 0.664864 1.39485 
462 1 0.627676 -0.209559 1.03473 1.22823 
2966 1 0.000958245 0.420581 -0.635063 0.761705 
3883 2 -1.05194 -2.07318 -0.0801348 2.32617 
1313 1 1.24954 -1.10995 -1.03635 1.96656 
3617 2 0.35434 0.807787 -1.16015 1.4574 
3578 2 -0.461438 0.849804 1.9661 2.19104 
2965 1 -0.24459 -0.013765 0.333377 0.413708 
3808 2 -0.130371 0.182823 -0.129932 0.259429 
3363 1 0.309062 0.343732 -0.162677 0.490035 
3162 1 -0.0245017 0.306818 -0.188484 0.360921 
750 1 -0.462735 1.44362 0.566311 1.61829 
449 1 -0.102104 0.498605 -0.419579 0.659605 
1285 1 -0.0504458 0.58441 -0.103181 0.595589 
2890 1 -0.175749 0.0785608 0.72848 0.753487 
4318 2 -0.642073 -0.414812 -0.632948 0.992446 
3022 1 1.1379 1.02159 0.115492 1.53355 
3197 1 0.879518 0.0179762 0.602275 1.06612 
378 1 0.273353 0.407529 -1.02179 1.13351 
373 1 0.932522 0.409283 -0.483663 1.1274 
4056 2 -1.29579 -1.98642 -1.71143 2.92471 
974 1 -0.839783 -1.02777 0.755589 1.52724 
3028 1 0.470715 -0.208269 0.0194502 0.515098 
356 1 0.0177742 -0.0703284 0.30923 0.317625 
2732 1 0.938346 0.0447567 -0.168817 0.954461 
1324 1 0.0496647 0.3602 -0.960809 1.02731 
94 1 -0.229414 0.518239 -1.09565 1.23355 
4146 2 -2.09029 0.267397 -0.51589 2.16956 
1212 1 -0.0115942 -0.133701 -0.605796 0.620483 
4297 2 0.730411 1.31503 -0.354432 1.54545 
3588 2 0.241322 -1.38151 -0.0452488 1.40316 
2401 1 2.10248 0.768039 0.201083 2.24739 
412 1 -0.1382 0.260268 -0.302198 0.422093 
394 1 0.24415 -0.207941 -0.337577 0.465625 
398 1 -0.0146081 0.373482 0.00679866 0.373829 
3301 1 -1.03668 1.09876 -0.263294 1.5334 
2329 1 0.481328 -0.166767 -0.33102 0.607505 
3320 1 -0.616105 0.878249 -0.53155 1.19727 
306 1 0.30006 0.130061 -0.296054 0.441135 
457 1 -0.632866 0.452261 -0.202055 0.80367 
3319 1 0.302381 0.429231 0.388268 0.653012 
3093 1 -0.988116 -0.0400768 -0.449618 1.08634 
3324 1 0.728905 -0.385501 0.201774 0.848897 
4284 2 -0.959031 -0.690673 0.413774 1.25219 
392 1 -0.00881844 1.34956 -0.115904 1.35455 
4197 2 1.41834 -0.157942 -0.0846314 1.42962 
3390 1 -0.971312 0.0727349 -0.247016 1.00487 
4225 2 0.544115 0.737742 -0.290584 0.961646 
2675 1 0.869095 -0.971728 -0.451846 1.37976 
3379 1 0.20073 -0.763281 0.676139 1.03926 
915 1 -1.1555 0.241509 0.117412 1.18629 
3337 1 0.919182 -0.145978 -0.246917 0.962899 
3257 1 0.310208 -0.698098 -1.37928 1.5767 
3150 1 1.12798 1.50351 -1.4999 2.4047 
78 1 0.712925 0.465364 -0.260913 0.89045 
3582 2 -0.589382 1.86691 1.34687 2.37629 
3094 1 0.582171 0.353946 -0.237393 0.721496 
1304 1 -1.31703 0.139383 -1.33097 1.87763 
389 1 0.0941447 0.887136 -0.674316 1.11829 
601 1 0.04796 1.07499 0.432561 1.15974 
716 1 -0.431692 0.141248 0.0170299 0.454531 
3535 2 0.52236 0.13708 -0.627508 0.827899 
1172 1 0.764503 0.595183 -0.926383 1.34048 
4261 2 0.888769 0.846636 -0.558711 1.34865 
3780 2 -1.22542 0.895419 -0.315822 1.55022 
1314 1 1.0684 -0.793312 0.350479 1.37611 
943 1 0.224904 -0.250109 0.371059 0.500821 
3561 2 0.921427 0.969779 -0.0252332 1.33796 
71 1 -0.0217351 1.04805 0.0435947 1.04918 
3676 2 0.383087 0.490452 0.266645 0.677051 
962 1 -0.886722 0.845231 -0.406303 1.29065 
3209 1 0.139821 0.789254 0.976742 1.26353 
460 1 0.86232 0.943738 -0.0464663 1.27922 
3668 2 -1.60879 0.156067 0.99748 1.89935 
4264 2 -0.298276 -1.03799 -1.42046 1.7844 
291 1 1.08627 0.103178 -0.145387 1.1008 
375 1 -0.685552 -0.00694232 0.32358 0.758111 
4309 2 -0.239805 -1.14829 0.635632 1.33421 
1432 1 -0.423205 -0.281886 -0.596855 0.784091 
4109 2 -0.823244 -0.868986 -0.00332467 1.19703 
388 1 0.123736 0.829923 -0.00377631 0.839105 
838 1 0.209982 1.52101 -0.202606 1.54874 
37 1 -1.09084 -0.0627721 -0.431516 1.17477 
404 1 0.108996 1.04391 -1.10033 1.52065 
2764 1 0.583593 -0.268745 0.397904 0.755733 
4182 2 0.646486 1.8641 -1.92707 2.75797 
3380 1 0.634094 -0.356463 -1.2444 1.44142 
439 1 0.762399 1.48483 -0.395108 1.71525 
273 1 -1.8037 -1.05478 -0.77792 2.22959 
436 1 0.614523 0.24817 0.101771 0.670511 
382 1 0.87214 -0.2157 -1.75576 1.97227 
2944 1 -0.630301 -0.118052 0.863125 1.07527 
3013 1 1.88174 -0.544608 -0.976013 2.18864 
2479 1 0.245307 -0.960632 -0.594914 1.15625 
3314 1 -1.63371 0.559822 -0.126008 1.73155 
3180 1 -0.278772 -0.741025 -0.258549 0.832874 
3293 1 0.295709 1.73329 0.569017 1.84811 
863 1 1.12799 1.00675 -1.30686 1.99845 
3266 1 0.407848 0.996166 -0.547706 1.20775 
3392 1 -0.864197 1.09049 0.230585 1.41038 
2500 1 0.303724 -1.27323 -1.47671 1.97333 
490 1 -0.422443 0.330036 -1.2977 1.40407 
614 1 -0.630286 -0.0337324 0.251932 0.679609 
2745 1 0.165852 0.414691 0.921024 1.0236 
3483 2 0.265167 -0.290044 1.34611 1.4023 
2959 1 1.61859 -0.101467 1.58958 2.27088 
160 1 -0.190524 -0.0744257 0.344074 0.400282 
248 1 -0.270418 0.544911 0.145829 0.625556 
3433 1 0.581423 0.0295708 -0.82197 1.00726 
4271 2 -0.53886 -0.677222 0.483738 0.991465 
741 1 -0.74755 0.206904 -0.281415 0.825127 
325 1 0.645959 -0.220853 0.127272 0.694433 
1457 1 -0.278189 0.660891 -0.934035 1.17753 
3419 1 0.10694 -0.366332 0.49765 0.62713 
4185 2 -0.241624 -0.12054 0.319407 0.418249 
3009 1 0.727866 0.706317 -0.388183 1.08598 
652 1 0.957214 0.493642 0.446845 1.16602 
499 1 -0.140505 0.605498 0.879195 1.07673 
2869 1 0.284575 -0.789697 -0.428982 0.942672 
3504 2 1.6925 -0.000944364 0.652091 1.81377 
3560 2 0.785026 1.49839 -0.0935389 1.69417 
292 1 0.366789 -0.368121 0.1265 0.534836 
908 1 0.538005 0.0239818 0.583678 0.794169 
489 1 1.24433 0.319347 0.0974024 1.28834 
3639 2 -2.45693 -1.3673 -0.846428 2.9364 
3444 1 0.158017 0.736087 -0.486631 0.896439 
4307 2 -0.338483 -0.133206 -1.12822 1.18541 
980 1 0.395592 -0.0111643 -0.222225 0.453874 
875 1 -0.345962 -0.94154 -1.02098 1.43129 
177 1 -1.19879 -0.0124615 -0.625415 1.35218 
363 1 -0.259683 -0.425392 -1.29049 1.38339 
874 1 0.61126 -0.468759 -0.788138 1.10206 
423 1 0.0688144 0.477248 -0.0243917 0.4828 
795 1 0.280023 -1.51931 -0.30191 1.57412 
810 1 -0.232423 0.259251 -0.0746369 0.356093 
3312 1 0.178066 0.975168 0.389227 1.06497 
225 1 0.195019 0.196995 0.488475 0.561647 
416 1 0.0993672 0.0248051 0.440817 0.452558 
2819 1 -0.24917 -0.0830928 -0.344336 0.433079 
3070 1 1.02648 -0.840491 -0.245329 1.34917 
964 1 -0.14155 -0.878245 -1.6773 1.8986 
2973 1 1.12837 -0.952476 -0.466617 1.5486 
691 1 0.411918 -4.02679 -0.0178475 4.04784 
957 1 0.560378 -0.775079 -0.390547 1.0331 
3368 1 1.13818 -2.45898 0.412108 2.74078 
3524 2 -1.67808 -1.45913 0.102873 2.22611 
1337 1 0.313074 -0.559663 -0.969009 1.16199 
2776 1 0.155814 0.167679 -0.479416 0.531257 
3291 1 -0.637625 0.70203 -0.161257 0.961986 
2445 1 0.675226 -1.85365 0.541301 2.04571 
2961 1 -0.358006 -0.956052 2.34519 2.55776 
2993 1 -0.0769494 0.634402 -0.247986 0.685481 
279 1 0.95695 0.954974 0.0479442 1.35278 
2969 1 0.50375 1.32476 0.29317 1.44731 
783 1 -0.487847 0.681577 0.710442 1.09876 
4152 2 -0.440242 1.99812 -2.58101 3.29362 
3559 2 -1.87066 -2.96784 -0.903669 3.62272 
917 1 -1.59182 -0.334802 0.0960889 1.62948 
4028 2 0.434495 1.13336 0.686525 1.39449 
199 1 -0.224471 0.694007 0.00432923 0.729419 
187 1 -1.35343 0.676606 -0.428506 1.57263 
3396 1 0.482832 0.232874 0.542161 0.762427 
914 1 -0.196338 -0.740258 0.423577 0.875185 
2758 1 -0.320763 1.18211 -0.0146878 1.22495 
581 1 -0.294683 -0.180009 -0.250621 0.426676 
274 1 -0.652457 0.473147 0.388056 0.894514 
3331 1 0.377933 -0.498542 0.329988 0.707298 
443 1 0.285839 0.497535 -0.0618263 0.57712 
3327 1 0.201346 -0.303209 0.118164 0.382673 
502 1 0.421272 0.614784 0.420334 0.855635 
1418 1 0.29056 0.0667787 0.24923 0.388587 
3435 1 -0.586837 0.298812 0.664884 0.935808 
956 1 -0.617315 0.201309 0.910162 1.11803 
3811 2 -1.06155 1.94542 0.511352 2.27443 
430 1 0.204989 -0.126732 0.420097 0.484317 
1450 1 -0.835315 -0.370746 0.0930029 0.918615 
866 1 -1.00023 0.054172 -0.758677 1.25658 
440 1 0.384527 -0.460579 -0.351708 0.69548 
295 1 -0.724238 -0.230402 -0.0579903 0.762213 
321 1 -1.09838 -1.05371 -0.781801 1.71113 
854 1 -0.15309 -0.0247793 0.541943 0.563696 
830 1 -0.000834008 0.030671 0.397747 0.398928 
937 1 0.0182766 -0.191074 0.058946 0.200793 
1289 1 -0.371821 0.889064 -0.584531 1.1271 
442 1 -0.331464 -0.267902 -0.224091 0.481515 
3278 1 -0.358329 -0.790275 -0.616329 1.06433 
3799 2 1.15317 1.50112 0.473975 1.95136 
486 1 0.525775 0.38656 -1.14463 1.31759 
183 1 -1.1333 -0.197417 0.0424137 1.15114 
1409 1 0.523683 -0.218939 -0.141837 0.58506 
419 1 0.551168 -0.361694 -0.586847 0.882608 
3544 2 -0.53864 -1.36581 -0.576312 1.57725 
793 1 0.763899 -0.825218 -0.462744 1.216 
314 1 0.434492 0.22578 0.172279 0.519077 
899 1 0.181854 -0.287074 -0.582774 0.674617 
757 1 0.207915 -0.363561 0.370086 0.5589 
3378 1 -0.254609 0.285903 -0.652945 0.756903 
3200 1 -0.330863 0.196991 -0.418505 0.568702 
1430 1 -0.624526 -0.709152 -0.0804218 0.948365 
174 1 -0.225049 -0.654293 0.659798 0.956075 
107 1 -0.502609 -0.524844 0.854268 1.12154 
822 1 -0.0515067 -0.456456 0.00170319 0.459356 
877 1 -0.424831 -0.567886 0.888964 1.1372 
497 1 -0.420011 -0.496862 0.214109 0.684926 
113 1 -0.101843 -0.25491 0.367271 0.458518 
3240 1 -0.78248 -0.0928924 0.406505 0.886651 
329 1 -0.548355 0.122242 0.0979963 0.570298 
3388 1 -1.31578 0.23457 -0.365154 1.38551 
2795 1 -0.392701 -0.309905 0.593838 0.776466 
819 1 -0.35384 -0.555692 0.276318 0.714387 
3863 2 -1.43042 1.01852 1.87525 2.56906 
2977 1 -0.0111767 0.24796 0.173402 0.302783 
3678 2 -0.730046 -0.832391 -0.982838 1.48048 
491 1 -0.0516086 0.150403 0.013702 0.1596 
2687 1 -0.0438437 -0.844673 0.297755 0.896689 
699 1 -0.739146 0.920778 -0.0675842 1.18268 
4099 2 -1.53638 1.25868 -0.0685875 1.98732 
786 1 -1.15416 -0.756014 0.131137 1.38595 
393 1 -0.378699 0.0797141 -1.56112 1.60838 
3541 2 -0.400767 0.734575 0.0968517 0.842374 
855 1 -0.63446 -0.0316277 0.704776 0.948815 
772 1 -1.1026 0.0663923 -0.446222 1.19132 
1254 1 -0.220453 -2.1431 -0.371103 2.18613 
319 1 0.331312 -0.226512 0.164958 0.43392 
4154 2 -2.2777 0.163012 -1.27202 2.61391 
2814 1 -0.551263 -0.198813 -0.846438 1.0295 
1723 1 -0.399591 -0.00884009 0.520709 0.656422 
1367 1 -0.00689384 0.743593 -1.15439 1.37317 
3545 2 0.593551 1.85949 -1.01941 2.20209 
801 1 0.148677 -0.497415 0.0742938 0.524449 
3612 2 0.0292464 -1.07895 -0.23104 1.1038 
328 1 0.0567706 -0.350783 0.428761 0.556873 
3397 1 -0.497583 -0.84548 0.0841019 0.984631 
501 1 -0.0225942 -0.189741 0.365131 0.412108 
268 1 -0.648258 -0.816266 1.32072 1.68251 
3328 1 -1.43041 0.25755 0.221864 1.47025 
461 1 -0.349974 -0.0692593 0.316946 0.477215 
31 1 -0.770351 1.75651 0.283173 1.93881 
2656 1 0.717101 -0.0788793 0.152267 0.73732 
3219 1 0.551717 -0.86407 -0.27315 1.06095 
840 1 -0.225415 0.861683 -0.233991 0.920903 
3482 2 -0.41046 -0.346005 -0.513702 0.743025 
3339 1 -0.211571 0.769171 -0.431872 0.907138 
2884 1 0.39161 -0.396755 -0.767071 0.948247 
3371 1 -0.0727201 -0.350342 -0.125892 0.37931 
3436 1 -0.193755 -0.562577 -0.483438 0.766646 
3192 1 0.0605959 0.16326 -1.30886 1.32039 
647 1 0.599852 -0.0866918 -0.239696 0.651761 
2873 1 0.295722 -0.900391 0.0802056 0.951099 
3223 1 -0.52309 0.0349126 0.460203 0.697588 
4098 2 0.548423 -0.841943 0.618245 1.17977 
4163 2 -0.480598 -0.632654 0.31078 0.853117 
2684 1 0.494212 -1.10195 -0.593095 1.34547 
402 1 0.268432 0.31172 -0.3652 0.550088 
1300 1 0.456042 0.75866 -0.877913 1.2467 
708 1 -0.0776541 -0.666974 -0.949358 1.16283 
3690 2 -0.224333 0.435474 -0.224926 0.539031 
128 1 -0.447407 0.761156 -0.104654 0.889091 
1641 1 -0.100814 -0.136917 0.109938 0.202475 
3211 1 0.625658 0.172178 1.17253 1.34012 
3649 2 -0.998189 1.07689 -0.378259 1.51629 
1544 1 0.309324 0.417314 -0.31081 0.605339 
891 1 -0.339806 -0.191712 0.172568 0.426616 
907 1 -0.544843 -0.492576 0.507705 0.892889 
1491 1 -0.295941 0.0208113 0.0189731 0.297278 
631 1 -0.39115 0.0106929 -0.051238 0.394636 
1535 1 -0.535408 0.933072 -0.389299 1.14405 
3884 2 -0.198248 0.662879 1.53936 1.6877 
960 1 -0.169311 0.393227 -1.33099 1.39815 
3600 2 -0.601372 -0.000207283 -0.666185 0.897469 
573 1 0.793829 0.328028 0.456779 0.972838 
712 1 1.00251 0.0629356 -0.88475 1.33857 
623 1 1.88976 -0.183096 -0.260106 1.91634 
1569 1 0.0909932 0.369872 -1.19628 1.25545 
683 1 0.75565 1.06514 0.676592 1.47081 
69 1 -0.753865 0.813973 -0.348148 1.16279 
4319 2 0.29647 -1.183 0.384882 1.27888 
3173 1 0.118643 -0.0242306 0.709407 0.719668 
3418 1 1.02336 0.302439 -0.327974 1.11638 
3616 2 0.344933 0.168011 0.0530961 0.387332 
3943 2 -2.89857 -0.746324 -0.00632553 2.99312 
4176 2 0.264588 -0.0692693 -0.251897 0.37183 
4187 2 0.384497 2.73439 -2.84393 3.96392 
655 1 -0.235146 0.152119 0.0827546 0.292031 
555 1 0.0652848 0.69624 -0.426417 0.819051 
934 1 0.541595 0.229187 -0.198146 0.620576 
1053 1 0.547253 -0.568251 -0.758885 1.09467 
4193 2 4.2596 0.901321 0.978994 4.46262 
1083 1 0.66657 -0.599461 -0.868828 1.24841 
4273 2 0.576175 -0.818682 -2.62914 2.81329 
1013 1 -0.534907 1.35383 0.533382 1.55031 
1118 1 1.15718 0.0363454 0.405065 1.22657 
3572 2 0.547835 0.893148 0.520099 1.16976 
621 1 -0.4732 1.1519 0.100007 1.24931 
617 1 0.817423 0.318413 -0.635363 1.08317 
166 1 -1.23868 0.911415 0.481359 1.61143 
1161 1 -0.529831 -0.000463875 0.363468 0.642518 
664 1 0.438404 -0.136126 0.719317 0.853315 
738 1 0.878405 0.0881628 -1.00824 1.34012 
137 1 0.0740203 0.182547 0.164754 0.2568 
232 1 0.7683 0.0928759 -0.194998 0.798082 
3463 2 -0.157703 0.700892 -2.50933 2.61014 
3819 2 2.12618 -2.34648 1.80864 3.64661 
4320 2 0.0504149 0.79266 -1.33247 1.55123 
3063 1 0.453562 0.262176 -0.0474395 0.526028 
1485 1 -1.23508 1.66207 -0.383637 2.10596 
52 1 0.186637 0.226912 -0.327583 0.440038 
1320 1 1.74204 -1.58809 1.27363 2.67934 
401 1 0.33094 0.525852 1.15883 1.31488 
1093 1 0.429664 1.12428 1.6432 2.03684 
927 1 0.494538 -0.688314 -0.305387 0.900892 
834 1 -0.420576 0.742802 0.721744 1.11783 
728 1 1.17837 -0.021262 1.20961 1.68884 
289 1 0.660004 0.575055 -0.363887 0.948002 
1412 1 0.752056 0.252792 -0.272763 0.838982 