ITEM: TIMESTEP
620
ITEM: NUMBER OF ATOMS
4320
ITEM: BOX BOUNDS pp pp pp
0.0000000000000000e+00 1.9309999999999999e+01
0.0000000000000000e+00 1.9309999999999999e+01
0.0000000000000000e+00 9.6549999999999994e+00
ITEM: ATOMS id type c_displacement[1] c_displacement[2] c_displacement[3] c_displacement[4] 
3196 1 0.00807599 -0.0159149 0.0788418 0.0808365 
381 1 0.0366457 0.0544311 0.00552329 0.0658495 
327 1 -0.102018 0.0485278 -0.0127462 0.113689 
484 1 0.00403851 0.110786 0.0315982 0.115275 
728 1 -0.0580613 -0.0686817 -0.200009 0.219299 
817 1 0.00970308 -0.0757438 0.0123317 0.0773521 
3006 1 0.0584248 -0.0390928 0.0719602 0.100598 
3679 2 -0.133921 0.0807056 0.0474573 0.163403 
59 1 -0.0119132 -0.0261041 0.100824 0.104828 
2945 1 -0.00282178 0.108217 -0.0724403 0.130255 
3230 1 0.0731971 0.0195759 -0.0972981 0.123321 
3651 2 0.0816037 0.0985062 -0.0569232 0.14001 
66 1 0.0625696 0.0182545 -0.113816 0.131158 
400 1 0.0131983 0.00896499 -0.11159 0.112724 
677 1 -0.00455694 -0.0493442 0.00971544 0.0504976 
623 1 0.00577148 0.107058 -0.0512745 0.118844 
87 1 0.0810025 0.134325 -0.0722859 0.172713 
3199 1 0.162789 0.124252 -0.189844 0.279248 
727 1 0.164892 -0.0246958 -0.0980809 0.19344 
688 1 0.0161246 0.0695884 0.084753 0.110841 
58 1 -0.105456 0.0618449 -0.0261815 0.125025 
3514 2 -0.14387 0.238723 -0.30335 0.411957 
18 1 0.124732 0.125728 0.109761 0.208358 
3618 2 0.0260631 -0.0689682 0.0434626 0.0855856 
190 1 -0.115302 0.183142 -0.0907224 0.234662 
298 1 -0.033763 -0.0521392 0.00745714 0.0625623 
3841 2 0.00129484 0.00288118 -0.150876 0.150909 
110 1 -0.0760705 -0.0243669 0.0324939 0.0862341 
180 1 -0.0118592 -0.0898908 0.0906606 0.12822 
106 1 -0.126162 0.0789598 0.10216 0.180522 
217 1 0.033561 0.016188 0.00940572 0.03843 
775 1 0.0270092 0.087965 -0.00649767 0.0922473 
3627 2 0.039684 0.284319 -0.0323765 0.288895 
608 1 0.0856369 0.0235532 0.0342527 0.0951929 
553 1 -0.0432649 -0.0253856 -0.083054 0.097027 
3118 1 -0.0264237 0.0881744 -0.0722799 0.117035 
562 1 0.0488409 0.019858 0.0138554 0.0545137 
70 1 0.070466 0.0915505 0.0244622 0.11809 
121 1 0.0906194 0.199595 -0.0190227 0.220027 
1118 1 -0.0266883 -0.280911 -0.0539328 0.287284 
210 1 0.0201412 0.0724037 0.109272 0.132621 
232 1 -0.102853 0.000483595 0.14811 0.180321 
4214 2 0.113764 0.0134061 0.141075 0.181725 
4170 2 0.112363 0.100799 -0.0380826 0.15568 
65 1 -0.0126612 0.0278859 0.0374281 0.0483611 
226 1 0.183578 -0.188721 0.11479 0.287216 
532 1 0.0142166 0.00237161 0.104499 0.105488 
3578 2 -0.0401534 -0.130009 -0.06475 0.150689 
473 1 0.0968215 -0.0128101 -0.0120007 0.0983998 
246 1 0.0155113 0.110362 0.113992 0.15942 
559 1 -0.162491 0.0751316 -0.00179139 0.179029 
155 1 -0.253158 0.0106771 -0.0757125 0.264453 
221 1 0.0218205 0.0942142 0.000508502 0.0967095 
4071 2 0.208155 0.175111 0.398254 0.482285 
2838 1 0.215453 0.182827 -0.0886633 0.296154 
536 1 0.0285741 0.0167093 0.0575274 0.0663708 
894 1 -0.0812976 -0.031539 0.0766422 0.116095 
289 1 -0.0192505 -0.106901 -0.025525 0.111579 
351 1 -0.0141606 0.0942545 0.0738663 0.120585 
197 1 -0.0331984 0.0615574 -0.0298365 0.0760373 
3135 1 0.0295046 0.175654 0.124972 0.217584 
303 1 0.00383907 0.0488307 0.0433162 0.065387 
1415 1 0.0823976 0.093679 -0.0127523 0.12541 
527 1 -0.258294 -0.0674024 0.258842 0.37183 
3002 1 -0.0980488 0.225914 0.193852 0.313415 
3189 1 0.109504 0.0114367 -0.00260212 0.11013 
712 1 -0.114433 -0.043769 0.0344831 0.127278 
718 1 0.0342373 0.0116507 0.0763293 0.0844636 
3469 2 0.256194 0.118786 0.144882 0.31739 
4177 2 0.0979546 -0.414645 0.0774995 0.43305 
93 1 -0.0284146 0.221317 0.179741 0.286523 
569 1 0.0505408 0.0331897 0.0139987 0.0620636 
639 1 -0.329428 0.113658 0.0984529 0.362124 
21 1 -0.00823247 0.00525931 0.0974579 0.0979463 
96 1 0.00549929 -0.0337735 -0.012763 0.0365211 
3353 1 -0.310524 -0.221527 -0.0168136 0.381814 
823 1 0.0239221 0.0568536 0.0715486 0.0944659 
2596 1 0.0347977 -0.207732 0.080378 0.225442 
50 1 0.0608483 0.00480723 0.0558733 0.0827493 
2495 1 0.0897216 0.244656 -0.05243 0.265811 
28 1 -0.174266 0.1594 -0.0391225 0.23939 
3055 1 0.202687 0.0321295 0.0440645 0.209895 
12 1 0.0741345 0.21415 -0.103724 0.249228 
3346 1 0.112193 0.220271 -0.104926 0.268545 
738 1 0.0435288 0.222871 0.0901638 0.244327 
2453 1 -0.0556132 0.124091 0.255831 0.289725 
3167 1 -0.0359822 0.0189713 0.0689082 0.0800186 
339 1 0.126042 0.158011 0.130043 0.240344 
988 1 0.0240208 0.125306 -0.0776258 0.149346 
3251 1 -0.047716 -0.00948115 -0.0141992 0.0506787 
78 1 0.100032 0.221638 -0.0934737 0.260514 
390 1 0.123281 0.145571 0.0538418 0.198212 
203 1 0.0713139 -0.0461601 0.0578218 0.102761 
3582 2 0.0524565 0.222949 -0.0512057 0.234692 
3632 2 0.0324949 0.144399 0.0144565 0.148715 
231 1 0.00861115 0.143153 0.1084 0.17977 
323 1 0.0518967 0.0687484 -0.0195464 0.088327 
3244 1 0.0223588 0.0901603 0.0187535 0.0947654 
118 1 0.217901 0.148579 0.0124795 0.264031 
2735 1 -0.107337 -0.00971285 0.0537211 0.120423 
2768 1 0.18746 0.0964642 0.0653655 0.220724 
2960 1 -0.0378403 0.011 0.048672 0.0626247 
29 1 0.0931674 0.0245075 0.0427635 0.105402 
753 1 0.0841105 -0.153661 0.146646 0.228454 
3467 2 0.0322484 0.0953893 -0.0466159 0.11096 
4289 2 0.0968794 0.123744 0.0884456 0.180335 
233 1 -0.0501627 0.0662349 0.128952 0.153401 
3478 2 0.00344103 0.0834745 0.0348912 0.0905385 
725 1 -0.0669826 0.167785 0.140687 0.228979 
1133 1 0.1631 0.208413 -0.00190019 0.264653 
3611 2 0.0542023 0.0571933 -0.132814 0.15443 
4187 2 -0.168817 -0.154701 -0.226001 0.321726 
437 1 0.0104557 0.0570011 -0.0232964 0.0624594 
53 1 0.107405 0.00851421 -0.0272656 0.111138 
593 1 -0.113011 0.0647877 0.0304324 0.133772 
609 1 -0.0079102 0.0145445 -0.0129611 0.0210263 
3040 1 -0.00423687 0.00130836 0.0942604 0.0943647 
737 1 0.110976 0.047938 -0.0777624 0.143738 
167 1 0.0332169 0.130432 0.219827 0.25776 
1178 1 0.0810543 0.118855 -0.0751371 0.162302 
610 1 -0.0954324 -0.159815 0.216655 0.285635 
247 1 -0.0615962 -0.00582729 0.164421 0.175677 
89 1 -0.0214644 0.0738146 0.13824 0.158176 
3149 1 0.0122739 -0.0418695 0.273987 0.277439 
550 1 0.0100971 -0.151299 0.109369 0.186962 
147 1 -0.00135211 -0.018536 0.211554 0.212368 
3554 2 -0.0128139 -0.0910335 0.0449167 0.102317 
3786 2 0.107938 0.0917989 0.0129888 0.14229 
5 1 0.128979 0.115549 0.14635 0.226728 
2591 1 0.110239 0.104946 0.035876 0.156376 
3232 1 0.0469734 -0.0167997 -0.0861586 0.0995592 
1215 1 0.103344 -0.00555752 -0.00962606 0.103941 
859 1 0.133634 0.109625 -0.0388656 0.177161 
3152 1 -0.0733471 0.0517823 0.0506453 0.103083 
2936 1 0.0260908 0.199151 0.000477959 0.200854 
920 1 -0.0338674 -0.0273956 0.214079 0.218466 
2461 1 0.00907509 0.200503 -0.0810676 0.216462 
23 1 -0.0238382 0.150834 0.0941193 0.179381 
3743 2 0.0122131 0.119422 -0.0746978 0.141388 
3023 1 -0.105682 0.0609086 0.0266027 0.124845 
151 1 0.0549407 -0.000519408 0.0834623 0.0999235 
43 1 0.0722031 0.0601154 -0.0636726 0.113496 
3730 2 -0.0561412 0.0930793 -0.0119587 0.109355 
424 1 0.0279119 0.0539326 -0.0290982 0.0673387 
4053 2 -0.0192979 0.207454 -0.0215721 0.209464 
1160 1 -0.248895 -0.0364733 0.336442 0.420086 
546 1 -0.0326306 0.057885 -0.00394064 0.0665654 
2500 1 0.0250794 0.0658054 -0.157241 0.17229 
3188 1 0.118397 0.087797 0.0629546 0.160279 
3491 2 0.0340971 0.113078 0.134063 0.178668 
717 1 -0.120248 0.0486288 0.0553938 0.141042 
2931 1 -0.104618 -0.185598 0.154374 0.263103 
691 1 -0.0316578 -0.0510584 -0.057253 0.0829884 
215 1 0.000309366 0.0065479 -0.052693 0.0530992 
174 1 -0.0159839 -0.227726 0.0559634 0.235046 
3493 2 0.0198563 0.0214889 0.159955 0.162609 
3634 2 0.0205217 0.32266 0.125885 0.346955 
2994 1 -0.0216092 -0.0660219 0.120479 0.139072 
529 1 0.0018294 -0.084849 -0.00606633 0.0850853 
1480 1 -0.0313668 0.0565691 0.111254 0.128691 
2968 1 0.0386654 0.0766051 0.159543 0.181156 
3464 2 -0.0484538 0.0593454 0.022065 0.0797278 
98 1 0.0507047 -0.100859 0.207717 0.23641 
216 1 0.195841 0.0593414 -0.00109714 0.204637 
40 1 -0.0143346 -0.0387284 0.206915 0.210996 
1130 1 0.0328072 -0.00826576 0.103061 0.108472 
140 1 0.0613048 0.0549919 0.218517 0.233521 
3041 1 0.0447529 -0.0285172 0.14475 0.154171 
604 1 -0.0455064 0.0909711 0.13589 0.169743 
721 1 -0.180477 -0.0013129 0.191452 0.263111 
3164 1 0.0506919 0.21521 0.138335 0.26081 
1179 1 0.0199542 0.272254 -0.0708867 0.282038 
3010 1 -0.0292374 0.150533 0.0711088 0.169031 
64 1 -0.108453 -0.087359 0.0351527 0.14363 
193 1 0.0412454 0.10714 0.0377054 0.120838 
44 1 0.037142 -0.156119 -0.0196202 0.161671 
2996 1 0.0515182 0.0404217 -0.19658 0.2072 
4212 2 -0.136176 0.235117 -0.0412283 0.274815 
3279 1 0.0133053 0.0125943 -0.0445569 0.0481764 
257 1 -0.0171687 0.0927905 0.0398013 0.102416 
178 1 0.0536315 0.0494156 -0.0579097 0.0931223 
330 1 -0.0083669 0.193714 0.121365 0.228746 
103 1 -0.074438 0.234183 -0.153753 0.289867 
1991 1 0.11751 -0.019951 -0.138935 0.183056 
600 1 -0.039062 0.130687 -0.150561 0.203159 
338 1 -0.0498474 -0.0696861 -0.0493347 0.0988677 
4101 2 0.0601081 0.0978119 0.0216403 0.116827 
949 1 -0.0335728 0.0627633 0.0395145 0.081411 
3608 2 0.15878 0.106198 0.00515663 0.19109 
2995 1 -0.141614 -0.117392 -0.0830688 0.201831 
4217 2 -0.0415908 0.194897 0.23406 0.307407 
479 1 -0.0368989 0.0976719 0.195057 0.221243 
3335 1 -0.0532392 0.128027 -0.0571032 0.149954 
1457 1 0.0118084 0.0764986 -0.0978398 0.124756 
3037 1 -0.0356491 0.164585 -0.143537 0.221274 
4253 2 0.0851002 0.0206642 -0.0170783 0.0892229 
387 1 0.119438 -0.0229246 -0.0512406 0.131972 
3736 2 -0.0967696 0.166709 0.223513 0.295151 
3394 1 -0.0778171 -0.0836968 -0.0107526 0.114788 
508 1 0.0123496 -0.0180593 0.0982514 0.100658 
3537 2 0.0272271 -0.0594819 0.0277465 0.0710583 
747 1 -0.0592956 -0.0769084 -0.0492391 0.108882 
497 1 -0.0375202 -0.0381863 0.0108845 0.05463 
958 1 -0.120687 -0.11446 0.0876811 0.188028 
3130 1 -0.0512326 -0.0830186 0.0468512 0.108222 
4163 2 -0.0891707 -0.0332061 0.162063 0.187932 
3643 2 0.0320827 0.113674 0.0217778 0.120105 
133 1 -0.0196287 -0.00835764 0.131871 0.133585 
4204 2 -0.316169 -0.0581793 -0.00661905 0.321545 
86 1 0.152665 0.0503593 -0.0577259 0.170806 
759 1 -0.0406605 -0.0479729 0.0170521 0.0651571 
3411 1 -0.0737788 -0.0773909 0.0389776 0.113806 
835 1 -0.00211696 -0.154349 0.162338 0.224012 
3057 1 0.0752419 0.00691138 0.00216604 0.0755897 
3620 2 -0.14136 0.21546 -0.171851 0.309739 
241 1 -0.153088 -0.000765727 0.119299 0.194084 
704 1 0.176967 0.135445 -0.12882 0.257404 
3599 2 -0.0707063 0.160296 -0.0922197 0.197987 
157 1 0.123985 -0.0239314 0.0168153 0.127388 
54 1 -0.0263352 -0.170829 0.140474 0.222731 
493 1 -0.183357 0.29361 0.0131664 0.34641 
204 1 -0.225127 0.0880094 0.0103008 0.241938 
254 1 -0.158741 0.11813 -0.18229 0.269041 
67 1 0.119106 -0.0458678 -0.029723 0.131048 
2988 1 -0.259329 0.315652 0.0913306 0.418604 
3030 1 -0.266099 0.291489 -0.127417 0.41474 
4050 2 0.0443219 0.116272 -0.157054 0.200373 
3479 2 -0.0556423 0.351522 -0.00725572 0.355973 
674 1 -0.0355375 0.0532324 0.152194 0.165105 
2004 1 -0.16044 0.145109 -0.00119128 0.216331 
4228 2 -0.0199762 0.0233988 0.0734103 0.0795967 
3216 1 -0.0484069 0.0527501 -0.0785429 0.106277 
234 1 0.058417 0.0130755 -0.0494879 0.0776696 
1036 1 0.137032 -0.00731039 -0.0048531 0.137312 
3369 1 -0.0265875 0.0670372 0.123148 0.14271 
3607 2 0.093895 -0.0788321 -0.050917 0.132753 
3139 1 0.0373957 -0.00659834 0.0706303 0.0801911 
644 1 -0.116124 -0.141199 -0.0264716 0.184724 
1278 1 0.110901 -0.213762 -0.0156374 0.241324 
4269 2 0.0377366 0.0706605 0.178862 0.195981 
3007 1 -0.00137508 -0.0286314 -0.0114072 0.0308508 
354 1 0.132153 0.0462639 0.0756738 0.159158 
4089 2 0.172975 0.137135 0.021183 0.221754 
214 1 0.0526102 -0.000354575 -0.00718508 0.0530997 
640 1 -0.0694141 0.0105689 0.188478 0.201132 
199 1 0.137729 -0.150137 0.0023129 0.203754 
245 1 0.186259 -0.183457 0.0960537 0.278523 
2758 1 -0.0267968 0.052117 -0.0128668 0.0599984 
3056 1 0.0507767 -0.095327 -0.0483207 0.118323 
3468 2 -0.0149186 0.0129946 -0.0142103 0.0243589 
563 1 -0.00581157 0.0216467 0.00291044 0.0226014 
2977 1 0.109726 -0.0626448 0.0313238 0.130174 
1149 1 0.0795353 -0.0494325 0.0609039 0.111708 
3916 2 -0.0123318 0.0361133 0.238409 0.241443 
249 1 -0.0669805 -0.0318015 0.0655877 0.0989923 
3096 1 -0.115617 0.0660591 -0.0408814 0.139292 
240 1 -0.0614263 -0.0338624 0.010021 0.0708539 
181 1 -0.0981248 -0.00864882 0.0917459 0.134613 
46 1 -0.0641726 -0.0492569 -0.0107443 0.0816077 
3211 1 -0.00862613 0.00789908 -0.0117603 0.0165864 
2684 1 -0.139498 0.0227341 0.0135917 0.141991 
95 1 -0.0500163 -0.136401 0.0717654 0.162041 
22 1 -0.0206762 0.106298 0.0139215 0.109182 
3512 2 0.0645897 0.0158526 -0.0352641 0.0752774 
3603 2 -0.111062 -0.13236 0.0370252 0.176705 
3701 2 -0.051082 0.0373336 -0.00245191 0.0633181 
3513 2 -0.0941876 0.00602893 -0.114287 0.14822 
312 1 -0.106025 0.0127626 -0.00793185 0.107084 
587 1 0.00825419 0.116577 -0.15451 0.193731 
134 1 -0.0533041 0.110742 -0.0710483 0.141961 
135 1 -0.147516 -0.0750265 -0.169809 0.237119 
3003 1 -0.0498637 -0.0744845 0.00293829 0.0896825 
191 1 -0.119864 0.105054 -0.013482 0.159955 
685 1 -0.0480908 0.0457586 -0.211107 0.221298 
602 1 -0.254262 0.163041 -0.0690045 0.309828 
195 1 -0.167615 0.109423 0.0497862 0.206268 
3092 1 -0.144313 0.110129 -0.0325914 0.184437 
4195 2 -0.196263 -0.0509349 -0.142955 0.248092 
80 1 -0.114908 -0.172358 0.0153559 0.207718 
540 1 -0.281096 0.156217 -0.048028 0.325154 
2981 1 -0.0532553 -0.10256 -0.0755917 0.13809 
427 1 -0.0501841 0.0972384 0.0225808 0.11173 
4173 2 -0.0383319 -0.0671543 0.177441 0.193557 
2950 1 -0.261958 -0.000870416 0.0410407 0.265154 
6 1 -0.111558 0.15546 -0.0987742 0.215335 
182 1 -0.00186267 -0.0405065 -0.0549448 0.0682874 
690 1 0.0308348 -0.00802143 -0.0553592 0.063873 
3408 1 -0.0164119 -0.0898297 -0.0126309 0.0921861 
902 1 0.0136443 0.00280791 0.0304847 0.0335167 
154 1 0.0659345 -0.169041 -0.0825684 0.199348 
710 1 0.0623651 -0.0336462 -0.102644 0.124729 
3115 1 -0.0729536 0.121614 0.0941962 0.17025 
742 1 -0.0625089 0.0527262 0.0960181 0.126123 
2926 1 -0.158285 0.0155077 0.0848765 0.180274 
446 1 0.0322912 0.0544733 0.0625273 0.0889929 
580 1 0.0272651 0.0107109 0.0964598 0.10081 
3518 2 -0.0830888 0.110842 -0.0165566 0.139512 
2939 1 0.0261047 0.0136756 0.0215068 0.0364832 
3078 1 0.0796461 0.177582 0.0636742 0.204776 
187 1 0.00714455 -0.0916059 0.0888736 0.127833 
205 1 -0.10774 0.0461603 -0.0686378 0.13583 
694 1 -0.135133 -0.019706 -0.0412802 0.142665 
861 1 -0.0626388 0.160812 -0.276392 0.325847 
3549 2 -0.0982721 -0.139114 -0.0350799 0.173899 
4014 2 -0.044349 -0.0913252 0.0245218 0.104444 
3401 1 -0.0436968 -0.0577457 0.0508181 0.0884673 
3808 2 -0.0183781 0.0578869 -0.0623479 0.0870397 
614 1 0.0147856 -0.0464144 0.014977 0.0509629 
3341 1 0.0187043 0.127413 -0.0323355 0.132776 
512 1 -0.0108715 0.185271 -0.104578 0.213027 
300 1 -0.233454 0.160904 -0.158008 0.324588 
393 1 -0.0200436 0.123057 0.00138866 0.124686 
2740 1 -0.101784 0.248143 0.036276 0.270649 
4116 2 -0.0155705 -0.00579102 -0.0657705 0.067836 
4006 2 -0.35334 -0.205164 -0.0537915 0.41211 
286 1 -0.098778 -0.161305 -0.118979 0.223456 
886 1 -0.082707 0.0543674 0.171089 0.197655 
277 1 -0.228923 0.0814943 0.118772 0.27047 
364 1 -0.067362 -0.0734811 0.217426 0.239188 
1367 1 -0.0611559 -0.00263602 -0.0304707 0.0683773 
411 1 -0.133648 0.090148 0.013404 0.161765 
4264 2 0.142499 -0.0229449 -0.0460139 0.151491 
356 1 -0.0329849 0.0258578 0.032256 0.0528875 
3664 2 -0.0953784 -0.0267369 0.00929503 0.0994902 
357 1 -0.0165671 -0.0115409 0.0477166 0.0518125 
265 1 -0.0975723 0.123119 -0.0174495 0.158061 
3389 1 -0.0651543 -0.0974983 0.0593948 0.131449 
362 1 -0.00254748 0.00605206 -0.0641419 0.0644771 
478 1 -0.0418762 0.0143701 0.0812061 0.0924908 
4159 2 -0.0385256 0.0150541 -0.0868469 0.0961937 
2696 1 -0.0439537 -0.0109972 0.0171856 0.0484584 
966 1 -0.0528236 0.0870767 -0.0595427 0.117975 
3612 2 0.000681022 0.0263042 -0.035116 0.0438806 
3392 1 -0.203282 -0.0670546 0.106447 0.239063 
780 1 0.0990798 -0.00507815 -0.092519 0.135655 
924 1 0.0369096 -0.0749883 0.144421 0.166863 
2710 1 0.0496169 -0.0637652 0.00455457 0.0809234 
3313 1 0.00978689 0.00917795 0.116303 0.117074 
433 1 0.000724981 0.0456387 0.082104 0.0939387 
771 1 0.0124499 0.0234237 -0.0194398 0.0328873 
3333 1 -0.0908729 -0.0632742 0.0644006 0.128097 
3303 1 -0.0568888 -0.0164031 0.0336629 0.0681071 
3526 2 -0.0895809 -0.0293525 0.10636 0.142123 
3249 1 -0.0132143 0.0824554 -0.137292 0.160695 
92 1 -0.0371649 -0.054605 0.167657 0.1802 
3379 1 -0.0885759 0.0191852 0.113482 0.145231 
1449 1 0.0891364 -0.0663389 -0.123894 0.166421 
903 1 0.0286546 0.219934 0.129157 0.256658 
1077 1 0.0235715 -0.0226121 0.0370301 0.0493776 
462 1 -0.0186436 -0.00730866 0.0483031 0.0522895 
2966 1 0.212461 0.167361 -0.0857964 0.283743 
3022 1 0.0919 0.260412 -0.0225535 0.277072 
750 1 -0.141401 0.0295786 0.0641638 0.15807 
3162 1 0.0844772 0.0304278 -0.020303 0.0920568 
449 1 0.109047 0.106277 -0.168602 0.227184 
3482 2 0.0656905 -0.0164001 -0.0460579 0.0818874 
287 1 -0.0355333 -0.0909586 -0.0447269 0.107408 
3647 2 -0.184077 0.0911406 -0.0543898 0.212483 
2890 1 -0.0597243 0.0929008 -0.00881129 0.110793 
1285 1 -0.000109817 0.352079 0.214679 0.412367 
943 1 -0.239164 0.0274731 0.0259691 0.242134 
3305 1 0.134366 0.200103 -0.0285778 0.242718 
3209 1 0.00715082 -0.00981386 -0.206756 0.207113 
4154 2 -0.0887605 -0.00568371 -0.00957088 0.0894557 
3257 1 0.0312332 -0.188877 -0.0433842 0.196296 
4318 2 -0.259746 0.0566506 0.144278 0.302478 
3883 2 0.0464495 0.14416 0.0579764 0.162176 
3531 2 -0.0238663 -0.162576 -0.0697222 0.178498 
3227 1 -0.013201 -0.060993 0.125357 0.140031 
373 1 0.24307 -0.0367723 0.0811653 0.258888 
4297 2 -0.0225934 -0.0291097 0.297088 0.299364 
3404 1 -0.0222804 -0.121667 0.0605158 0.1377 
398 1 -0.092829 0.0623606 0.0442427 0.120264 
2732 1 -0.0213343 0.0217201 -0.102731 0.107147 
3221 1 -0.00016148 -0.0364112 -0.00725176 0.0371267 
836 1 0.0274889 0.00319289 0.00953331 0.0292698 
309 1 -0.0155291 0.083987 -0.0335345 0.091758 
394 1 0.1067 -0.0259339 -0.00674671 0.110013 
412 1 0.0150379 0.082455 0.0298507 0.088972 
1212 1 0.00273103 0.0499375 -0.0688563 0.0851023 
3573 2 -0.0129269 0.0492139 0.0677641 0.0847413 
3360 1 -0.034002 -0.00222195 -0.0460592 0.0572933 
3319 1 -0.0176026 -0.0471528 0.125401 0.135125 
3588 2 0.125239 0.0473223 0.156266 0.205775 
2365 1 0.0349979 0.0168779 -0.0699916 0.0800533 
306 1 0.0291764 -0.00638339 -0.0376886 0.0480878 
3093 1 -0.0601353 0.0240888 0.0533965 0.0839506 
2745 1 0.051592 -0.0864319 -0.0472976 0.111217 
355 1 -0.108891 0.0193776 -0.0729391 0.132487 
3097 1 0.0784699 0.194823 -0.000497935 0.210033 
3658 2 -0.0375706 0.337536 0.297498 0.451495 
228 1 -0.143008 0.0449903 0.0217949 0.151494 
3324 1 0.148507 0.14506 -0.0744307 0.220537 
951 1 -0.00896131 0.104071 -0.0571125 0.11905 
2737 1 -0.030936 0.0618574 -0.0227626 0.0728115 
2959 1 -0.128839 0.181004 -0.126012 0.255423 
4284 2 0.0444335 -0.15368 0.138114 0.211346 
4225 2 0.153286 0.000939379 -0.101688 0.18395 
3380 1 -0.0584344 -0.0789853 0.113803 0.150348 
1354 1 -0.00474082 0.00914967 0.0549339 0.0558921 
716 1 0.264023 0.140573 -0.0992793 0.315159 
353 1 0.169549 0.0500741 -0.00073918 0.176791 
601 1 0.156781 0.174634 -0.0772892 0.247084 
3094 1 0.0268656 -0.049901 -0.0812976 0.0991019 
3617 2 0.115718 0.050489 -0.0211074 0.128005 
206 1 0.0525317 0.080454 -0.119641 0.153448 
71 1 0.169639 0.105168 -0.0245059 0.201093 
3676 2 0.184928 0.113164 -0.0274672 0.218538 
4123 2 -0.16651 0.0602739 0.0198865 0.178197 
4185 2 0.0400375 0.032871 0.00947869 0.0526626 
3483 2 -0.12226 0.174385 -0.121185 0.245038 
763 1 0.108037 0.147521 0.14468 0.233167 
3561 2 0.0698985 0.143126 0.128034 0.204362 
3290 1 0.00766019 0.0567425 -0.0414136 0.0706645 
388 1 -0.0217368 0.128894 0.201692 0.240345 
1313 1 0.145835 0.0934975 -0.0327988 0.176311 
444 1 0.0968377 0.108299 -0.0144642 0.145998 
3668 2 0.0622201 0.115455 -0.00972299 0.131514 
838 1 0.0652281 0.117515 0.0779469 0.155372 
460 1 0.040696 0.0932568 0.0856287 0.132986 
499 1 0.00215984 0.050507 -0.00188603 0.0505883 
3548 2 -0.550064 -0.184746 0.0166749 0.580499 
291 1 0.166191 0.184159 -0.0639473 0.256171 
482 1 0.135797 0.119156 0.124182 0.219226 
1314 1 0.0790437 0.0368649 0.0696434 0.111612 
3672 2 0.165903 0.117627 0.0704093 0.215215 
375 1 0.143955 -0.100034 -0.0726841 0.189771 
94 1 0.0946079 -0.0687783 -0.0146065 0.117875 
3281 1 0.0127969 0.0645158 0.0808386 0.104216 
37 1 0.0216143 0.0039853 0.115624 0.117695 
3321 1 -0.0160069 -0.117955 0.0145263 0.119919 
2961 1 -0.032325 -0.0284348 -0.0169902 0.046283 
3393 1 0.0373047 0.0984267 -0.0234789 0.107846 
901 1 -0.029809 -0.219083 -0.0906357 0.238958 
4309 2 0.00628409 0.0140109 -0.0426342 0.0453152 
392 1 -0.074088 0.039505 0.0253585 0.0877082 
436 1 0.0857853 -0.0567885 -0.106061 0.14776 
792 1 -0.00730492 -0.107396 -0.0445055 0.116481 
3293 1 0.0949269 -0.0671816 -0.066182 0.133808 
3320 1 -0.180024 -0.106588 -0.0598493 0.217604 
3095 1 -0.141947 0.0607883 -0.102154 0.185148 
318 1 0.012578 -0.168316 -0.0487928 0.175697 
3350 1 -0.243616 -0.15329 0.175999 0.337376 
3314 1 0.012434 -0.0868289 -0.261139 0.275477 
2861 1 0.0364559 -0.17847 -0.0514397 0.189279 
3180 1 -0.0599482 0.0186842 0.00631445 0.0631091 
3150 1 -0.0954376 -0.0877373 -0.00258882 0.129664 
2479 1 -0.0517656 0.00644416 0.0204061 0.0560145 
160 1 -0.158207 -0.00492029 0.1554 0.221817 
3535 2 -0.00187261 0.115568 -0.115355 0.163298 
389 1 0.245363 -0.1703 -0.0154434 0.299071 
1324 1 -0.0720178 0.102971 0.0345833 0.130329 
100 1 -0.0697591 0.0360167 0.0702332 0.105339 
3409 1 -0.0325925 -0.0561847 -0.0701182 0.0955801 
3192 1 -0.0540047 -0.193857 0.0483905 0.206975 
4257 2 0.295938 0.385092 -0.162507 0.512137 
1304 1 0.103736 0.0474533 -0.032239 0.118542 
626 1 0.0901754 -0.0313162 0.0245645 0.0985683 
3225 1 0.0548813 0.0381383 0.0580307 0.0885101 
4271 2 0.0797831 0.0456189 0.0149549 0.0931132 
1172 1 0.0879007 0.00824994 -0.0444763 0.0988572 
652 1 0.0847701 -0.000666785 -0.143844 0.166966 
3568 2 0.0495042 -0.0434819 -0.0653474 0.0927988 
3433 1 0.105039 -0.0794639 -0.0855414 0.157051 
3419 1 -0.00399276 0.0203109 -0.122597 0.124332 
483 1 0.00223027 0.0818312 0.0324031 0.0880413 
3560 2 0.130229 -0.185562 -0.0575932 0.233902 
419 1 0.28685 -0.233519 0.296524 0.474068 
3234 1 -0.122188 -0.0738054 -0.177652 0.227898 
917 1 0.0543422 -0.226617 -0.123755 0.263863 
699 1 -0.00695732 -0.0089832 -0.0257896 0.0281816 
325 1 0.0969568 0.00661019 -0.00902155 0.0975997 
292 1 0.078272 -0.101808 0.00927053 0.128753 
3444 1 0.028287 0.0221412 0.0592249 0.0692674 
908 1 0.201774 0.0120615 0.00321525 0.202159 
3504 2 0.361914 -0.0471175 0.016776 0.365353 
423 1 0.119171 0.0349828 0.0344618 0.128892 
502 1 -0.0355139 -0.129013 0.00904237 0.134117 
3435 1 0.0653069 0.0702929 -0.0532661 0.109742 
430 1 -0.185342 -0.109823 0.0981479 0.23674 
439 1 0.206186 0.0220847 0.0705885 0.21905 
3331 1 0.00485942 -0.158212 0.00573702 0.15839 
4182 2 -0.0478133 -0.0666712 0.0200764 0.0844644 
874 1 0.114698 -0.0644453 0.123951 0.180756 
980 1 0.0661377 -0.0189301 0.0536712 0.0872533 
810 1 0.111485 0.00268928 0.0349239 0.116858 
3312 1 -0.0166544 0.00438394 0.0571411 0.0596799 
1442 1 0.0112054 -0.0409157 0.122344 0.12949 
225 1 0.0377865 -0.0312797 0.0345038 0.0599729 
4280 2 0.0257569 -0.0166662 -0.0646557 0.0715649 
416 1 0.00336657 -0.0818967 -0.0592638 0.101146 
365 1 0.0168245 -0.0953923 0.00808558 0.0972015 
3799 2 0.0323109 -0.169073 -0.0863249 0.192566 
2819 1 0.1549 -0.126511 0.0921581 0.220209 
382 1 0.114055 -0.0463303 -0.042247 0.130153 
404 1 0.00245791 -0.118934 -0.0586019 0.13261 
2776 1 0.0874583 0.0857227 0.132978 0.180778 
2973 1 -0.178794 -0.0598131 0.0422572 0.193211 
957 1 0.0774526 -0.0944729 -0.197203 0.231976 
795 1 0.0412181 0.0260053 0.076079 0.0903506 
490 1 -0.0251451 -0.12694 -0.183816 0.224798 
3266 1 -0.0755609 -0.0548086 -0.114464 0.147701 
4285 2 -0.0397447 0.00563519 0.000811942 0.0401504 
496 1 -0.0495823 0.0257059 0.055626 0.0788255 
2993 1 -0.0892159 0.0308269 -0.0933654 0.132766 
4256 2 -0.0758276 -0.206578 -0.0906814 0.238007 
471 1 -0.0507458 0.142054 -0.0275849 0.153348 
517 1 0.0355077 0.11083 0.0894495 0.146783 
279 1 -0.0861224 0.338457 0.0756371 0.357339 
349 1 -0.0495485 -0.117631 -0.161115 0.205549 
4098 2 -0.174581 -0.0426529 0.00198425 0.179727 
4028 2 -0.123355 -0.0320126 0.0152332 0.128349 
208 1 0.0143254 -0.0219462 -0.106567 0.109742 
3322 1 0.180288 0.0834427 0.0668182 0.209597 
3863 2 -0.100199 -0.172498 -0.079116 0.214604 
274 1 0.0609492 -0.207034 -0.181286 0.281855 
1091 1 -0.0557102 -0.0802494 0.0235882 0.100499 
3396 1 0.107836 -0.0532092 0.071343 0.13982 
3678 2 0.0340949 0.136875 -0.0241048 0.143103 
329 1 -0.263428 0.0100268 -0.16558 0.311306 
2545 1 -0.0698126 -0.0923769 -0.119273 0.166233 
3327 1 -0.0517163 -0.10127 -0.0664829 0.13172 
3674 2 -0.116531 0.0376561 0.255106 0.282978 
1418 1 0.107358 0.030142 -0.158747 0.193997 
443 1 -0.17174 -0.115693 -0.0202893 0.208065 
855 1 0.032177 -0.0429075 -0.263613 0.269013 
1254 1 0.0258199 0.0671093 0.032067 0.0787313 
3476 2 0.16155 -0.0508651 -0.16234 0.234606 
2869 1 0.00290132 -0.00311392 -6.41787e-05 0.00425655 
4307 2 0.0804361 0.0129066 -0.148626 0.169488 
177 1 0.0429549 0.119456 0.00775084 0.127181 
363 1 0.0663989 -0.109934 -0.0951481 0.159836 
1450 1 -0.0214569 0.0696587 -0.0344445 0.0806173 
3559 2 0.0876644 0.0748118 0.0499048 0.125588 
347 1 0.0320328 0.00290389 -0.175113 0.178042 
4237 2 0.134296 -0.060338 -0.101685 0.17893 
319 1 0.0258839 -0.124559 0.089128 0.155334 
830 1 -0.0758383 -0.0384438 0.00181289 0.0850451 
295 1 0.0168659 -0.144279 -0.0326768 0.148891 
937 1 0.0415956 -0.02122 0.0399674 0.0614644 
268 1 0.0200309 0.0986788 0.0756794 0.125961 
854 1 0.054604 0.0194359 0.00685164 0.0583635 
442 1 -0.112619 -0.113958 -0.0851724 0.181449 
875 1 0.143949 0.0438061 0.0902379 0.175452 
501 1 0.146596 -0.038427 0.329198 0.362406 
3378 1 -0.0798939 0.185511 0.240061 0.31373 
3291 1 0.0974591 0.0110576 0.00956553 0.0985497 
314 1 -0.110901 -0.140773 0.105637 0.208027 
474 1 -0.238789 0.0375807 -0.442534 0.504251 
3070 1 0.0330832 0.0976126 -0.0367717 0.10943 
964 1 -0.221368 0.0158717 -0.12399 0.254223 
793 1 -0.302273 0.078707 -0.108028 0.330506 
3397 1 -0.298192 -0.0410417 -0.0990354 0.316876 
899 1 -0.194031 0.0263205 -0.0317343 0.198363 
1337 1 -0.119197 0.0484296 -0.137782 0.188513 
3278 1 -0.146609 -0.0385342 -0.0768966 0.169977 
3544 2 0.0200232 -0.0280637 0.0304347 0.0459867 
1430 1 -0.159389 -0.122453 0.124536 0.236451 
3200 1 -0.0384541 -0.0521274 0.050512 0.0821428 
757 1 -0.254124 -0.047705 0.180083 0.315094 
822 1 -0.176877 -0.113828 0.195956 0.287473 
819 1 -0.15084 -0.130085 -0.0628743 0.208874 
107 1 -0.170195 -0.119501 -0.0578239 0.215848 
3383 1 0.0547324 -0.0797904 0.0345724 0.102749 
3240 1 -0.279798 -0.193347 -0.0698568 0.347203 
113 1 0.0483863 0.111541 -0.0348122 0.126469 
504 1 0.0313281 -0.00720976 0.0338028 0.0466482 
2795 1 -0.0148655 0.0267738 0.124814 0.128516 
781 1 -0.0909851 -0.0896074 0.065515 0.143527 
581 1 -0.0745586 -0.135823 -0.0145886 0.155627 
3541 2 0.110412 -0.0758435 -0.0664602 0.149533 
786 1 0.186566 -0.142976 0.0763959 0.247154 
800 1 0.0854329 -0.171468 -0.134775 0.234231 
367 1 0.0982705 0.021398 0.108298 0.147795 
2687 1 0.192751 -0.136972 -0.0641185 0.245001 
3545 2 0.153248 0.126564 -0.128598 0.236729 
491 1 0.0401958 0.126642 -0.110202 0.172622 
840 1 0.0617503 0.0649384 -0.0570395 0.106224 
3434 1 -0.029786 -0.0706686 0.0721798 0.105315 
2814 1 -0.0598543 0.16494 -0.035086 0.178938 
1723 1 0.112214 -0.165634 -0.234872 0.308532 
3264 1 0.225792 -0.244174 -0.0147956 0.332899 
440 1 0.0294389 -0.0266014 0.023681 0.0462069 
431 1 0.0659183 0.000610189 0.0447948 0.0797005 
402 1 -0.0766727 -0.074733 0.313956 0.331711 
968 1 -0.0368003 -0.0512917 0.14606 0.159118 
801 1 -0.084104 -0.15316 0.0690898 0.187896 
2656 1 0.0146313 0.0363545 0.0744193 0.0841069 
421 1 -0.0489204 0.000759022 -0.0592369 0.0768296 
4152 2 -0.154941 0.127711 0.0472816 0.206282 
461 1 -0.138223 0.27721 0.0712805 0.317855 
647 1 -0.0307452 -0.0951162 0.286867 0.303785 
3436 1 -0.0556942 -0.0711899 -0.0609852 0.109037 
3371 1 -0.16839 0.129751 -0.0244588 0.213983 
486 1 -0.148289 0.134296 0.0466107 0.205421 
308 1 0.02852 -0.0779811 -0.0436234 0.0937947 
307 1 0.126145 -0.0797079 0.0541944 0.158754 
85 1 0.0870911 0.00106525 0.103102 0.134967 
4143 2 -0.252599 -0.104976 0.233395 0.359582 
2873 1 0.0108401 -0.0722512 0.110471 0.132444 
2884 1 0.106878 -0.0302514 -0.0995375 0.14915 
3339 1 -0.214632 0.0662989 0.11517 0.252441 
248 1 0.142925 -0.0219588 0.0235569 0.146508 
2969 1 0.132707 -0.0911764 0.205438 0.261015 
183 1 -0.306068 0.0407561 -0.0987954 0.32419 
825 1 0.0764787 -0.146822 0.177296 0.242569 
128 1 0.00897542 0.10674 0.0230468 0.109568 
907 1 -0.00963474 0.178833 0.00991491 0.179367 
1641 1 0.144288 0.0630707 -0.0729065 0.173529 
885 1 0.127419 0.0137996 -0.308778 0.33432 
1300 1 0.0701501 0.0877842 0.00441382 0.112457 
1934 1 0.0586425 0.0609445 -0.0275525 0.0889512 
891 1 -0.0158724 -0.00569223 0.0111111 0.0201938 
3778 2 -0.0525772 0.0266987 -0.152981 0.163953 
1269 1 -0.160912 -0.291056 0.128022 0.356365 
1535 1 0.00356012 0.0324731 -0.0417905 0.0530436 
573 1 -0.012919 -0.0713677 0.0422363 0.0839295 
3844 2 0.0769904 -0.00636015 -0.0813321 0.112173 
631 1 0.15837 -0.0422318 0.0221808 0.165398 
606 1 -0.0312318 0.0869986 0.179891 0.20225 
3600 2 -0.0281823 -0.0929247 -0.066006 0.117414 
627 1 -0.142141 -0.0450918 -0.0726688 0.165886 
1474 1 -0.036568 0.103063 0.130903 0.170572 
1569 1 -0.116636 -0.289821 -0.0118918 0.312637 
63 1 -0.0550818 -0.0881773 0.146075 0.179297 
577 1 -0.0361656 -0.173535 0.260703 0.315259 
565 1 -0.038145 -0.0675947 0.174302 0.190801 
3616 2 0.0251147 -0.0493769 0.118423 0.13074 
3418 1 -0.0326845 -0.191272 0.0759396 0.208375 
4176 2 -0.10147 -0.0377122 0.142864 0.179245 
2057 1 -0.150105 -0.0502437 0.133801 0.207265 
69 1 -0.111861 -0.157493 0.226588 0.297756 