ITEM: TIMESTEP
780
ITEM: NUMBER OF ATOMS
4320
ITEM: BOX BOUNDS pp pp pp
0.0000000000000000e+00 1.9309999999999999e+01
0.0000000000000000e+00 1.9309999999999999e+01
0.0000000000000000e+00 9.6549999999999994e+00
ITEM: ATOMS id type c_displacement[1] c_displacement[2] c_displacement[3] c_displacement[4] 
3196 1 -0.00301271 -0.00506016 0.0257941 0.0264578 
381 1 0.0270218 -0.0144536 -0.0204635 0.0368489 
327 1 -0.0187076 0.0291838 0.0442814 0.0562362 
484 1 0.0336624 0.148335 -0.00944007 0.1524 
728 1 -0.0581772 0.107371 -0.073353 0.142456 
817 1 0.015778 -0.0362585 0.105669 0.112825 
3006 1 0.0457547 0.104327 0.085236 0.142277 
3679 2 -0.0682143 0.0973864 0.105455 0.158928 
59 1 0.0726944 0.067471 0.0347562 0.105094 
2945 1 0.0196716 0.142605 -0.0615387 0.156557 
3230 1 0.15351 -0.0122878 -0.0765308 0.171969 
3651 2 0.0690711 0.144485 0.124255 0.202697 
66 1 0.0925472 0.116429 0.0396749 0.153931 
400 1 -0.161883 0.0715249 -0.00838439 0.177179 
677 1 -0.0067432 -0.0398912 0.0321517 0.051677 
623 1 -0.0298546 -0.0136997 -0.106473 0.111425 
87 1 0.121113 0.162154 -0.0359153 0.205553 
3199 1 0.0567826 0.0782888 -0.0284427 0.100809 
727 1 0.105202 -0.000211918 0.04354 0.113856 
688 1 0.0564967 0.0454606 0.187298 0.200846 
58 1 0.0489604 -0.0285903 -0.0889727 0.105502 
3514 2 -0.000183293 -0.000392013 -0.150854 0.150854 
18 1 0.230997 0.130422 0.18914 0.325797 
3618 2 0.0967431 -0.131843 -0.00425664 0.163585 
190 1 0.124793 0.0532693 -0.00593973 0.135817 
298 1 0.0135305 -0.145745 -0.0109581 0.146782 
559 1 -0.0103454 0.02563 -0.0584791 0.0646818 
110 1 -0.059192 -0.0774276 0.112777 0.149055 
180 1 0.0410575 -0.0195718 -0.0388282 0.059803 
106 1 -0.0247944 0.0259203 0.0840441 0.0913785 
217 1 0.000843371 -0.00900476 0.0829638 0.0834553 
775 1 0.00371652 -0.0329484 -0.00507651 0.0335437 
3627 2 0.00929224 0.215305 -0.027169 0.217212 
608 1 0.142165 0.00118825 0.151725 0.207925 
2478 1 0.0225 0.0497258 0.0188749 0.0577509 
3118 1 -0.0120819 0.0295136 -0.0584441 0.0665788 
562 1 0.0205515 0.0750237 -0.136704 0.157286 
70 1 0.0294864 0.00861749 0.0639389 0.0709359 
121 1 0.126427 0.0871274 -0.0197268 0.154804 
1118 1 -0.038751 -0.185448 -0.151387 0.24251 
210 1 0.130835 0.0306458 0.0844423 0.158706 
232 1 -0.02352 0.0384786 -0.067728 0.0813688 
4214 2 0.161547 0.0573652 0.0584888 0.181133 
4170 2 -0.0496068 0.125757 -0.0144862 0.135962 
65 1 0.0177779 0.0654905 -0.0657043 0.0944569 
226 1 0.222198 -0.0611582 0.0759072 0.24264 
532 1 0.10685 0.185454 0.00375438 0.214066 
3578 2 0.0561871 0.0483842 -0.0124677 0.0751895 
473 1 0.0611519 0.0630184 -0.155614 0.17868 
246 1 0.0485675 0.0839928 -0.0374956 0.104017 
4034 2 0.00923581 0.178929 -0.0120143 0.179569 
155 1 -0.113373 0.032277 -0.212857 0.243317 
3460 2 0.0884339 0.0551262 0.0339374 0.109596 
4071 2 0.202645 0.228574 0.432324 0.529353 
2838 1 0.193122 0.328643 -0.00849576 0.38128 
536 1 -0.0794111 0.0254112 0.00499507 0.0835273 
894 1 0.0153654 0.0649353 0.0304962 0.0733669 
289 1 -0.0168613 -0.0394827 0.0451422 0.0622977 
351 1 -0.000741254 0.0653628 0.0829493 0.10561 
197 1 -0.0397898 0.00785365 0.00974025 0.0417107 
3135 1 0.0860663 0.0299415 0.100254 0.13548 
303 1 0.00639445 0.138525 0.0402145 0.144386 
1415 1 0.0830396 -0.001557 0.0251953 0.0867918 
527 1 -0.13088 0.0759908 0.356799 0.387569 
3002 1 -0.073575 0.250426 0.150713 0.301398 
3189 1 -0.0198328 -0.000381465 0.0456796 0.0498007 
712 1 -0.0633692 -0.132066 0.12814 0.19462 
718 1 0.0577497 0.0678955 0.0941746 0.129668 
3469 2 -0.0218865 -0.096947 -0.0686895 0.120814 
4177 2 0.101248 -0.516826 0.331636 0.622369 
93 1 -0.175836 0.144589 0.215851 0.313713 
569 1 -0.0512704 0.00752071 0.0884632 0.102523 
639 1 -0.142027 0.0938654 0.0845167 0.190067 
21 1 -0.131424 0.0113044 0.19606 0.236304 
96 1 0.101621 -0.0404037 0.00803389 0.109654 
3353 1 -0.0749557 -0.0516894 -0.00692041 0.0913128 
823 1 0.0965754 0.0478955 0.069448 0.128233 
2596 1 0.0121575 -0.156674 0.0630534 0.169323 
50 1 -0.000193875 -0.0713666 0.0791639 0.106584 
2495 1 -0.00729718 0.045598 0.222163 0.226912 
28 1 0.0466855 0.104327 0.0940754 0.148033 
3055 1 0.0705325 -0.0444835 0.120848 0.146826 
12 1 0.211804 0.0668602 -0.00363181 0.222136 
3346 1 0.135543 0.129438 -0.108593 0.216607 
738 1 0.0302393 -0.0535767 -0.0637419 0.0885884 
2453 1 0.148621 0.134719 -0.0219942 0.201795 
3167 1 0.0310984 0.0250544 0.000389141 0.0399372 
339 1 0.0867168 0.186817 0.00840449 0.206133 
988 1 -0.000324074 0.0958664 -0.0889257 0.13076 
3251 1 -0.0271572 0.048527 -0.118808 0.131178 
1454 1 -0.059473 0.057977 -0.115893 0.142582 
390 1 0.235506 0.061745 0.153859 0.288007 
203 1 0.0772892 -0.0210114 -0.0695638 0.106086 
3582 2 0.00246141 0.25743 -0.0853216 0.271212 
3632 2 0.0967954 0.20232 -0.185162 0.29084 
231 1 0.168431 0.0264093 0.0523993 0.17836 
323 1 0.024153 0.0854323 -0.0776038 0.117917 
3244 1 0.0364829 0.0766415 -0.162155 0.183028 
118 1 0.0378411 0.128002 -0.111031 0.173621 
2735 1 -0.0110087 -0.0294108 -0.136397 0.139966 
2768 1 -0.0134835 0.0466165 -0.0264662 0.0552754 
2960 1 -0.0846041 -0.00290613 -0.00587506 0.0848577 
29 1 -0.0445675 0.102355 0.00635712 0.111818 
753 1 -0.046681 -0.157817 0.0472635 0.171229 
3467 2 -0.0318738 0.026245 -0.0709335 0.0820749 
4289 2 -0.0701884 0.0749831 0.00295226 0.10275 
2936 1 -0.0787938 0.291883 -0.0177784 0.302853 
3478 2 0.210856 0.0153848 -0.0983996 0.233194 
725 1 -0.0593203 0.0203858 0.177575 0.188328 
4053 2 0.0203229 0.126012 0.0445201 0.135181 
3611 2 0.202091 0.0533369 -0.0529844 0.215622 
4187 2 0.0340527 -0.174527 -0.0187288 0.178802 
437 1 -0.0290005 0.0097744 -0.0130587 0.0332731 
53 1 0.0429244 0.00318167 0.027363 0.0510035 
593 1 0.0148661 0.0318066 0.0921206 0.0985843 
609 1 0.146953 -0.0483075 0.119136 0.195249 
3040 1 0.0460715 -0.0743579 -0.0103007 0.0880783 
546 1 -0.0952231 0.00186864 0.013304 0.0961661 
167 1 -0.0907766 0.082844 0.236623 0.266635 
1160 1 -0.196967 -0.0431863 0.38725 0.436605 
610 1 0.11881 0.00674262 0.0409875 0.125862 
247 1 0.100134 -0.138635 0.250954 0.303684 
89 1 -0.049372 0.0977666 0.106767 0.152955 
3149 1 0.0492369 0.11649 0.26592 0.294462 
550 1 -0.0153307 -0.0385593 0.149274 0.154934 
147 1 0.00971528 0.290953 0.359002 0.462202 
3554 2 -0.073804 0.112427 0.00785126 0.134717 
3786 2 -0.215179 0.206552 0.139105 0.329114 
5 1 -0.00251477 0.114572 0.182527 0.215521 
2591 1 0.0051674 0.207914 0.108474 0.234566 
3232 1 -0.0164585 0.0556663 -0.106204 0.121033 
1215 1 0.162732 0.118638 0.0286154 0.20341 
859 1 0.0989109 0.1041 0.0733006 0.161224 
3152 1 -0.0780047 0.0196402 0.0797913 0.113301 
553 1 0.0138067 0.0176272 -0.0336662 0.0404321 
920 1 0.00365033 -0.103446 0.124527 0.16193 
2461 1 2.10595e-05 -0.0551514 -0.0688931 0.0882493 
23 1 -0.0683166 -0.003278 -0.111469 0.130779 
3743 2 0.0227069 0.17858 0.0104808 0.180323 
3023 1 -0.0609294 0.224579 -0.0876087 0.248643 
151 1 -0.019887 -0.00410523 0.0785549 0.0811371 
43 1 -0.0785571 0.0803738 0.0620254 0.128368 
3730 2 -0.0601205 0.0760773 -0.0917173 0.13347 
424 1 0.0869779 0.0773975 0.0376164 0.122354 
3835 2 0.002557 0.152582 -0.138148 0.205846 
3586 2 0.0474047 -0.00859982 0.102226 0.113011 
737 1 0.128199 0.0506394 0.129705 0.189269 
255 1 0.0349276 -0.0750817 -0.0332768 0.0892443 
233 1 0.114554 -0.0643916 0.171241 0.215853 
73 1 -0.0372007 -0.0519636 0.0389643 0.0748487 
3712 2 -0.0628205 0.0577446 -0.0781496 0.115707 
2500 1 0.0222658 0.0713469 -0.0338387 0.082044 
3188 1 0.0924617 0.204974 0.0197356 0.225727 
3491 2 0.183352 0.184008 -0.00367333 0.25979 
717 1 -0.0633259 0.114658 0.0367678 0.136046 
2931 1 -0.0883334 -0.16949 0.0430405 0.195914 
691 1 -0.199364 -0.0587601 -0.101564 0.23133 
215 1 0.0469098 0.120075 -0.0948403 0.160041 
174 1 0.00257794 -0.194863 0.0240107 0.196353 
3493 2 0.0360734 0.138636 0.177737 0.22828 
3634 2 0.0989528 0.0552329 -0.0140866 0.114196 
2994 1 0.058018 -0.108545 0.142708 0.18845 
529 1 0.0558797 -0.113421 -0.0556093 0.138127 
1480 1 0.0465127 0.0563424 0.229346 0.240702 
2968 1 0.0750614 0.111636 0.088754 0.161165 
3464 2 -0.106546 -0.0441605 0.0455322 0.123997 
98 1 0.100471 -0.145439 0.145913 0.22921 
216 1 0.0765555 0.105545 -0.0371359 0.135571 
40 1 -0.0387111 0.0741559 0.262859 0.275849 
1130 1 -0.0347737 -0.00405147 0.028479 0.0451295 
1102 1 -0.00907727 -0.0391547 -0.0431128 0.0589423 
3041 1 -0.0279754 -0.113887 -0.12206 0.169268 
604 1 -0.0786031 -0.0240296 0.0537004 0.0981815 
721 1 -0.377656 0.0696381 -0.0245141 0.384805 
3164 1 0.0156973 0.175326 0.131026 0.219439 
1179 1 0.0842822 0.0318804 -0.121395 0.151184 
103 1 -0.192395 0.192531 -0.114392 0.295245 
64 1 -0.0725776 -0.0519408 -0.140192 0.16619 
193 1 0.0506628 0.160676 0.00260542 0.168494 
44 1 0.044267 -0.116098 -0.0342611 0.128888 
2996 1 0.00734057 0.202173 -0.150934 0.252406 
4212 2 -0.0366162 0.301275 -0.107362 0.321923 
3279 1 -0.061982 0.114211 -0.0822974 0.153814 
257 1 -0.127671 0.138162 -0.138941 0.233866 
178 1 0.0221057 0.135705 -0.144497 0.199459 
330 1 -0.0472144 0.342204 -0.0102301 0.345597 
1133 1 0.12125 0.0536602 0.0992253 0.16561 
1991 1 0.0363957 -0.0378481 -0.0815769 0.097015 
600 1 -0.193932 0.113578 -0.01801 0.225464 
338 1 -0.165165 -0.0197193 0.0114271 0.16673 
4101 2 -0.0471484 0.0972409 0.0681141 0.127743 
949 1 -0.174778 0.144071 0.107166 0.250576 
3608 2 -0.0663895 0.15719 0.0708034 0.184741 
2995 1 -0.131168 -0.135781 -0.157829 0.246072 
4217 2 -0.170273 -0.0587745 0.161184 0.241718 
479 1 -0.0826942 0.0844924 0.0972657 0.153094 
3335 1 0.0323304 -0.048986 -0.0976492 0.113931 
1457 1 0.0303176 -0.0976875 -0.0070703 0.102528 
3037 1 -0.0603577 0.152845 -0.067114 0.177508 
4253 2 0.104436 0.0266548 -0.145302 0.180914 
387 1 0.154263 -0.043683 0.0269916 0.162584 
3736 2 -0.0929041 0.237332 -0.0798411 0.267081 
3394 1 -0.0789681 -0.0213416 -0.0727656 0.109482 
508 1 0.0352031 0.147371 0.0590339 0.162612 
3537 2 0.0738337 0.0128352 -0.179121 0.194166 
747 1 -0.0663453 0.229937 0.00378001 0.239347 
497 1 -0.0187843 -0.0344881 -0.000814149 0.0392803 
958 1 -0.0839644 -0.0919245 0.096718 0.157653 
3130 1 -0.0373117 -0.0272502 -0.0176973 0.0494766 
4163 2 -0.0626369 -0.12881 0.0971522 0.173072 
3643 2 0.0341778 0.00111085 0.0172271 0.0382901 
133 1 -0.0153823 0.106327 0.172795 0.203471 
4204 2 -0.0481926 0.012609 0.0963628 0.108477 
86 1 0.219017 0.0183905 0.0781168 0.233257 
759 1 0.00745005 0.0536481 0.0771696 0.0942803 
3411 1 -0.0241769 0.039579 0.0824423 0.0945926 
835 1 0.0288422 -0.128557 0.237839 0.271893 
3057 1 -0.195983 0.052831 0.172992 0.266696 
3620 2 -0.135392 -0.207973 0.0395599 0.251294 
241 1 -0.202132 0.0828173 0.0265368 0.220046 
704 1 0.130026 -0.0233969 0.0140024 0.132854 
3599 2 -0.306056 0.18574 -0.0400655 0.360242 
157 1 0.0895558 0.0699938 -0.000221368 0.113664 
54 1 0.0722271 -0.0602425 0.057462 0.110217 
493 1 -0.112221 0.299327 -0.0920175 0.332652 
204 1 -0.0559087 0.120772 -0.000784664 0.133088 
254 1 0.0637326 0.199091 -0.199001 0.288618 
67 1 0.0603347 0.0464936 -0.0632714 0.0990212 
2988 1 -0.17809 0.250721 -0.146965 0.340845 
3030 1 -0.274663 0.1986 -0.0356908 0.340815 
4050 2 0.129501 0.194449 -0.0107448 0.233872 
3479 2 -0.105669 0.291434 -0.00148349 0.310003 
674 1 0.0172774 -0.0201059 -0.0203006 0.0333897 
2004 1 -0.2598 -0.016702 0.0781326 0.271809 
4228 2 0.0601198 9.0356e-06 -0.0189075 0.0630229 
3216 1 -0.153075 0.0701522 0.108442 0.200282 
234 1 -0.012259 -0.130598 -0.0532543 0.14157 
1036 1 -0.048651 -0.029362 0.0225671 0.0611418 
3369 1 -0.0911288 0.0448946 0.0623609 0.119201 
3607 2 -0.16036 0.00777066 0.167313 0.231883 
3139 1 0.0842028 -0.0281082 -0.00640829 0.0890014 
644 1 -0.28423 -0.0917157 -0.00225113 0.29867 
1278 1 0.0403277 0.0107343 0.068361 0.0800923 
4269 2 -0.0518529 0.136559 0.0610692 0.158324 
3007 1 -0.0320303 -0.0385509 -0.0585103 0.0770426 
354 1 0.0533741 -0.000140314 0.0389475 0.0660736 
4089 2 0.0654637 0.0561005 -0.0705387 0.111393 
214 1 -0.0350109 0.0376663 0.127952 0.1379 
640 1 -0.145459 -0.0984161 0.0188924 0.176638 
199 1 0.028595 -0.0623221 -0.0826199 0.107367 
245 1 -0.0173182 -0.0926218 0.230126 0.248669 
2758 1 -0.253936 0.0585303 -0.0311675 0.262451 
3056 1 -0.0758056 -0.139174 0.0249939 0.160439 
3468 2 -0.0253825 0.0793013 0.0866212 0.120151 
563 1 -0.0597438 0.106742 -0.0418837 0.129296 
2977 1 -0.0317789 0.00831138 -0.0668067 0.0744454 
1149 1 -0.0365808 -0.060007 0.078336 0.10524 
3916 2 -0.206511 -0.07828 0.310956 0.381403 
249 1 -0.0717078 0.0191616 0.0157749 0.0758816 
3096 1 -0.0426352 0.0241438 0.106815 0.117517 
240 1 -0.138484 0.0242214 0.022728 0.142411 
181 1 -0.0960111 -0.0276619 0.0625156 0.117862 
46 1 -0.076856 -0.0262819 0.0430445 0.0919261 
3211 1 -0.0560144 0.0400837 0.0131409 0.0701213 
2684 1 -0.193247 -0.119018 0.0532891 0.233129 
95 1 -0.0639078 -0.0688587 0.0201329 0.0960785 
22 1 -0.0941095 0.0919144 0.0685084 0.148318 
3512 2 -0.0924336 0.0282383 0.0466262 0.10731 
3603 2 -0.0359411 -0.0743367 0.0126991 0.0835402 
3701 2 0.0397324 -0.0199557 0.056388 0.0718088 
3513 2 -0.0618732 0.0957191 0.0420506 0.121485 
312 1 -0.0444289 0.0355335 0.0939565 0.109838 
587 1 0.0216322 0.117065 0.0298031 0.122721 
134 1 0.0107506 0.132054 0.0347284 0.136966 
135 1 -0.146462 -0.0453913 -0.0858831 0.175748 
3003 1 -0.0881348 -0.00563225 0.0604467 0.10702 
191 1 0.0520177 0.0730139 -0.0435542 0.0996686 
685 1 0.0519502 0.0315211 -0.0625712 0.0872213 
602 1 -0.140316 -0.015655 -0.0314809 0.144654 
195 1 0.0326317 0.104753 -0.00804804 0.110012 
3092 1 -0.0659468 0.0294534 0.148057 0.164735 
4195 2 -0.0498235 -0.137202 -0.162969 0.218783 
80 1 -0.144117 0.0143137 0.0113958 0.145274 
540 1 -0.0645323 0.125725 -0.20588 0.249715 
2981 1 -0.137772 -0.118265 0.060934 0.191522 
427 1 -0.0067955 0.00876454 0.0154097 0.0189856 
4173 2 0.0358901 -0.164526 -0.0379635 0.172621 
2950 1 -0.168727 -0.100575 0.0231406 0.197787 
6 1 -0.180859 0.0711583 -0.017721 0.19516 
182 1 0.00880062 -0.175702 -0.193754 0.261704 
690 1 0.00789081 -0.134663 0.0390722 0.140438 
3408 1 -0.253405 0.101703 0.0548928 0.278515 
902 1 -0.00362837 -0.144675 0.00604803 0.144847 
154 1 -0.102745 0.0877704 -0.222544 0.260357 
710 1 -0.261275 -0.0445683 -0.234415 0.353837 
3115 1 -0.170257 0.12263 0.0565632 0.217313 
742 1 -0.124013 0.00970574 -0.0239871 0.126684 
2926 1 -0.217542 -0.132918 0.217497 0.335107 
446 1 -0.0171247 -0.0249134 0.177359 0.179917 
580 1 0.0406119 0.0642145 0.256902 0.267902 
3518 2 -0.144242 0.182656 0.017995 0.233437 
2939 1 -0.00736038 0.160788 0.0934601 0.186123 
3841 2 -0.180549 -0.0266746 0.00920752 0.182741 
2934 1 -0.0894001 0.036271 0.0448386 0.106388 
78 1 0.0509056 -0.010446 0.00645561 0.0523658 
551 1 -0.194628 -0.0204056 -0.0837927 0.212879 
205 1 -0.0717746 0.156365 0.0613477 0.182661 
694 1 -0.0531912 0.155063 0.0646182 0.176208 
861 1 0.018419 0.114768 -0.105809 0.157183 
3549 2 -0.0182526 -0.00600529 -0.114479 0.11608 
4014 2 -0.024086 -0.0147726 0.0510513 0.058349 
3401 1 0.0376407 0.227493 0.00558475 0.230654 
3808 2 0.0706693 0.072433 -0.0853171 0.132362 
614 1 0.0887649 -0.0890844 -0.0478165 0.134542 
3341 1 -0.00532346 0.131472 -0.0621054 0.1455 
512 1 0.177547 0.138544 -0.00759414 0.225333 
300 1 -0.0807353 0.089796 -0.128046 0.176004 
393 1 0.0568043 0.0529876 -0.101529 0.127838 
2740 1 -0.119924 0.162892 0.0645572 0.212329 
221 1 0.148281 0.147099 -0.0219308 0.210015 
4006 2 -0.222312 -0.204835 -0.012629 0.302555 
286 1 -0.0358148 0.00867895 -0.0118572 0.038712 
886 1 0.110931 0.160319 0.0108753 0.195259 
277 1 -0.118314 -0.113811 -0.094484 0.189416 
364 1 -0.0675916 -0.0189626 0.142891 0.159204 
1367 1 -0.0521942 0.0504446 0.104793 0.127477 
411 1 -0.0746863 0.136388 0.130531 0.203022 
3658 2 0.0385148 0.173343 0.163253 0.241211 
356 1 0.0906776 -0.00293881 0.0265128 0.0945198 
626 1 0.0255875 -0.0342579 0.103282 0.111783 
357 1 -0.123443 0.15653 -0.0425695 0.203843 
265 1 -0.0950399 -0.0246625 0.0211065 0.100431 
3389 1 -0.0681053 -0.105065 0.00949222 0.125567 
362 1 -0.0514013 0.0915089 0.0938285 0.140783 
478 1 -0.0855904 0.229479 0.000821721 0.244922 
4159 2 -0.136306 -0.0284522 -0.0427631 0.145662 
2696 1 -0.0290462 0.0688816 -0.0424108 0.0859479 
966 1 -0.0222995 0.103327 0.0712313 0.127466 
3612 2 -0.0899465 -0.0710948 0.0421421 0.122151 
3392 1 -0.0761343 0.0251759 0.0115273 0.0810132 
780 1 -0.0198017 0.127359 -0.208457 0.245086 
924 1 -0.00710181 0.09671 0.0513733 0.109738 
2710 1 -0.0823314 0.0344961 -0.00257925 0.0893033 
3313 1 -0.137428 0.00223455 -0.0533678 0.147444 
433 1 0.00273669 -0.143923 -0.0251591 0.146131 
771 1 -0.106102 0.0603659 -0.0424085 0.129229 
3333 1 -0.0734029 -0.0533554 0.143405 0.169705 
3303 1 0.0207478 0.0112114 0.148448 0.150309 
3526 2 -0.0969589 0.120836 0.0970337 0.182806 
3249 1 -0.0205894 0.0821431 -0.0559484 0.101497 
92 1 -0.131687 -0.0842951 0.206322 0.258874 
3379 1 0.00331757 0.0201604 0.0169724 0.0265615 
1449 1 -0.000446141 -0.0516498 0.0822031 0.0970838 
903 1 0.158007 0.147312 0.326101 0.391164 
1077 1 -0.0425147 -0.0376576 0.0174327 0.0594095 
462 1 -0.0702835 -0.00858935 0.0749564 0.103112 
2966 1 0.0232625 -0.0661788 0.00989853 0.0708432 
3022 1 0.0586528 0.0856721 -0.0294924 0.107934 
750 1 -0.0702731 0.0265272 0.0289828 0.0805109 
3162 1 -0.125192 0.186312 -0.064064 0.23343 
449 1 0.0551145 -0.0260678 -0.131635 0.145069 
3482 2 -0.148332 -0.13347 -0.0807923 0.215276 
287 1 0.12578 0.137771 -0.0664671 0.198039 
3647 2 0.11195 0.157018 0.0468413 0.198448 
2890 1 -0.0523252 0.0967162 0.0943889 0.144918 
1285 1 0.0685129 0.0643145 0.0779248 0.122076 
943 1 0.0303084 0.0265255 0.176911 0.181438 
3305 1 0.0272441 0.188254 0.0260041 0.191984 
3209 1 0.214154 0.145787 -0.056343 0.265123 
4154 2 -0.103429 0.179282 -0.0260399 0.208609 
3257 1 0.251068 -0.0500085 -0.0616329 0.263315 
4318 2 -0.166025 -0.00259928 0.159193 0.230029 
3883 2 -0.0118004 0.0747507 0.0730977 0.105215 
3531 2 -0.102843 -0.268356 0.0124006 0.287655 
3227 1 0.0708906 -0.0226404 0.0847451 0.112782 
373 1 0.124505 0.113646 0.0908364 0.191489 
4297 2 0.0472253 0.0882614 0.0244064 0.103034 
3404 1 0.125275 0.0250069 0.0093382 0.128087 
398 1 0.0188071 -0.07551 0.0301034 0.0834367 
2732 1 -0.0734678 -0.0666337 -0.00658115 0.0994026 
3221 1 0.056076 -0.0226766 -0.0441096 0.0748625 
836 1 -0.103378 -0.139802 0.127738 0.215751 
309 1 -0.0637099 0.186632 0.0201866 0.198237 
394 1 0.110507 -0.000807014 0.031955 0.115038 
412 1 -0.0431118 0.143932 0.0266771 0.1526 
1212 1 -0.0575536 0.158337 0.133833 0.215161 
3573 2 -0.140679 0.118918 -0.0248485 0.185875 
3360 1 -0.210548 0.0101897 -0.0534889 0.217475 
3319 1 -0.0639075 -0.00952002 -0.00509225 0.0648131 
3588 2 -0.0475857 0.0199744 0.05737 0.0771666 
2365 1 -0.0378334 0.0758625 -0.0261116 0.0887034 
306 1 -0.129443 0.0218246 -0.0710124 0.149246 
3093 1 -0.123979 0.00395625 -0.00790722 0.124293 
2745 1 -0.0327897 0.0283249 0.035142 0.0557891 
355 1 -0.203758 0.0296456 0.0307981 0.208194 
3097 1 0.00337175 0.113557 -0.00519222 0.113725 
160 1 -0.161123 0.146051 0.0782181 0.231105 
228 1 -0.225315 -0.0067057 0.0402433 0.228979 
3324 1 -0.014351 0.0812464 -0.0146446 0.0837937 
951 1 -0.0350625 0.11109 0.0155209 0.117521 
2737 1 -0.191765 0.0614212 -0.0720588 0.213866 
2959 1 -0.0155333 0.0343881 -0.0836179 0.0917376 
4284 2 0.017468 -0.0423311 0.0428153 0.0626913 
4225 2 0.31146 0.0121193 0.00400103 0.311721 
378 1 0.254881 -0.0239004 0.00123233 0.256002 
3290 1 -0.128653 0.0248469 -0.142888 0.193871 
716 1 0.117794 0.109553 -0.159946 0.226848 
353 1 0.0901242 -0.0327478 0.000324603 0.09589 
601 1 -0.0182827 0.0910954 0.06914 0.115814 
3094 1 0.0540163 0.0193529 0.0542926 0.0789936 
3617 2 0.0573217 -0.0359841 0.103477 0.123645 
206 1 0.0126368 0.0307071 0.0923112 0.0981018 
71 1 0.0861 -0.0846851 0.0131914 0.121486 
3676 2 -0.017301 0.0681524 0.11258 0.132734 
772 1 -0.135404 0.115263 -0.0480706 0.184203 
4185 2 0.125897 -0.24734 0.00161544 0.277542 
3483 2 0.0196059 0.108904 -0.0624113 0.127042 
763 1 0.000425184 0.0200207 0.134011 0.135499 
3561 2 0.0172842 0.0599798 -0.01311 0.0637823 
3409 1 -0.153576 -0.0489361 -0.0844969 0.181989 
388 1 0.0509362 0.137051 0.172728 0.226302 
1313 1 0.0267084 -0.0482183 -0.0179677 0.0579757 
444 1 0.0286817 0.0925729 -0.0616389 0.114855 
3668 2 0.0324358 0.0326471 0.0638786 0.0787298 
838 1 0.0275068 0.0401998 0.0553254 0.0737126 
460 1 0.121134 -0.13855 0.088341 0.204141 
499 1 0.0602766 0.038655 0.0238804 0.0754835 
3548 2 -0.519875 -0.0785317 -0.0912789 0.533638 
291 1 0.148946 -0.0369808 0.0211453 0.154918 
482 1 0.0403383 0.0779304 0.00964314 0.0882798 
1314 1 0.0765246 0.156815 0.144466 0.226534 
3672 2 0.050635 0.186919 0.0696184 0.205789 
375 1 0.148342 -0.01318 0.0414274 0.154581 
94 1 0.188285 0.00128197 0.0704878 0.201051 
3281 1 0.134188 0.0222371 0.0687817 0.15242 
37 1 0.0902095 0.00397152 0.0803911 0.120898 
3321 1 0.120875 -0.163248 0.0183892 0.203958 
2961 1 0.100657 0.0299425 0.0449697 0.114239 
3393 1 -0.0381463 0.094403 -0.00971486 0.102281 
901 1 -0.125377 -0.163037 -0.131497 0.244115 
4309 2 -0.00138994 -0.115956 -0.00361875 0.11602 
392 1 0.0347018 -0.0514171 -0.0111711 0.0630296 
436 1 0.0116805 -0.040726 -0.0270792 0.0502824 
792 1 -0.186068 0.0376384 0.0466604 0.195487 
3293 1 -0.0937744 0.059468 0.113397 0.158711 
3320 1 -0.0318247 -0.222153 0.100098 0.245732 
3095 1 -0.124685 0.00853074 -0.0655862 0.141141 
318 1 -0.0730063 -0.0143929 0.0305169 0.0804261 
3350 1 -0.0669465 -0.0463681 0.227591 0.241722 
3314 1 -0.0206638 0.0155867 -0.00812961 0.0271298 
2861 1 0.0350995 -0.119487 -0.030341 0.128178 
3180 1 -0.0255927 0.020205 0.0145442 0.0357038 
3150 1 0.0129409 0.0461561 0.0189208 0.0515349 
2479 1 -0.0320123 0.0732531 0.0195274 0.0822929 
3301 1 -0.0220595 0.0686609 -0.123564 0.14307 
100 1 -0.0492138 0.0419255 -0.146185 0.159843 
389 1 0.125765 -0.1623 -0.0977198 0.227393 
1324 1 -0.0796484 -0.0438984 -0.0462145 0.102013 
4116 2 0.051326 -0.0663691 -0.0973592 0.128523 
468 1 0.107544 0.0798422 0.329946 0.356096 
3664 2 0.0374396 -0.122658 0.0210975 0.129968 
3434 1 -0.0185798 -0.0835943 0.157344 0.179138 
4271 2 0.061684 0.112499 0.0899138 0.15667 
1172 1 0.128772 -0.0782737 0.0875718 0.174292 
652 1 0.197789 -0.120349 0.108892 0.255855 
3568 2 0.0700808 0.0623067 0.0894975 0.129627 
3433 1 0.225508 -0.0021835 0.0757256 0.237893 
3419 1 0.0164293 0.0830627 0.0460059 0.0963633 
248 1 0.0345609 0.04267 0.14184 0.152098 
3560 2 0.103256 -0.0995999 -0.00120936 0.143469 
1304 1 0.210425 -0.110306 0.119195 0.265807 
3234 1 -0.0778955 0.11237 -0.00908839 0.13703 
917 1 -0.0348417 -0.10914 -0.00936827 0.114949 
2969 1 0.205208 0.0164328 0.175814 0.270723 
325 1 0.177311 0.0173349 -0.0286267 0.180442 
292 1 0.127309 0.0182581 -0.00287213 0.128644 
3444 1 0.116865 0.00203455 0.0690721 0.135766 
908 1 0.23259 -0.106043 -0.0424729 0.259127 
3504 2 0.306111 -0.300112 0.0547989 0.432174 
423 1 0.0730272 -0.0241423 -0.0169493 0.0787598 
502 1 -0.0155996 -0.0693902 0.0698547 0.0996897 
3435 1 -0.0576615 -0.0220503 0.068307 0.0920701 
430 1 -0.0992456 -0.104341 0.107217 0.179533 
439 1 0.197667 0.0727444 0.149927 0.258538 
3331 1 -0.0811466 -0.0992974 0.0921522 0.157914 
4182 2 -0.113393 -0.202816 -0.0132658 0.232741 
874 1 0.16275 -0.141886 0.1555 0.266081 
980 1 -0.0135327 -0.200529 0.162199 0.25827 
810 1 0.148645 0.0601055 -0.0999898 0.18896 
3312 1 -0.00546949 -0.0579202 0.0924664 0.109246 
3383 1 -0.0399005 0.158065 0.0166931 0.163876 
225 1 0.0212335 -0.127952 0.202369 0.240366 
4280 2 0.234908 0.242362 -0.120492 0.358384 
416 1 0.0402501 -0.219654 0.128164 0.257476 
365 1 0.131135 -0.0307228 0.194639 0.236695 
3799 2 0.154721 -0.186913 -0.0610096 0.250195 
2819 1 0.0367917 -0.158725 0.13344 0.210602 
382 1 -0.0523975 0.0740717 -0.0416182 0.0998208 
404 1 0.00847435 -0.0539907 -0.0291414 0.0619356 
2776 1 0.08737 0.0511805 0.113202 0.15188 
2973 1 -0.17838 0.0270791 0.0453306 0.186031 
957 1 -0.0422566 0.0326476 -0.0644049 0.0836629 
795 1 0.00147838 0.0859929 0.073249 0.112971 
490 1 -0.0421969 -0.0772767 -0.204157 0.222333 
3266 1 0.00731934 0.00467176 0.115174 0.115501 
4285 2 0.0382394 -0.0462223 0.150777 0.162273 
496 1 -0.000583541 0.0988957 0.0615127 0.116467 
2993 1 -0.0628673 -0.0237909 -0.0501706 0.0838773 
4256 2 -0.0662085 -0.0721503 -0.0249248 0.101047 
471 1 -0.0165767 0.00862828 0.103044 0.104725 
517 1 0.126586 0.0871588 0.126205 0.198868 
279 1 -0.0373296 0.404708 0.0615717 0.411063 
4264 2 0.194236 0.00814907 0.0517385 0.201173 
4098 2 -0.0648928 -0.0209895 0.0632557 0.0930211 
4028 2 0.0197023 -0.110316 0.132275 0.173362 
183 1 -0.272804 -0.101137 -0.204362 0.355548 
3322 1 0.152762 0.0620295 0.0817883 0.184047 
3863 2 -0.125254 -0.0307418 0.128483 0.182048 
274 1 0.114974 0.146823 -0.0754275 0.20116 
1091 1 0.0974003 0.106364 0.077556 0.163753 
3396 1 0.0332368 -0.0700372 0.0313227 0.0836122 
699 1 -0.00202975 0.137722 -0.116536 0.180421 
329 1 -0.0837293 0.13251 -0.18716 0.244128 
2545 1 -0.139866 -0.0288587 -0.082686 0.165022 
3327 1 -0.141952 0.0656103 -0.0319513 0.159612 
3674 2 -0.148292 -0.0645046 0.157959 0.226058 
1418 1 0.121661 0.0609419 -0.0730127 0.154422 
443 1 -0.126437 -0.0178769 -0.100631 0.162581 
855 1 -0.0554396 -0.0336942 -0.21697 0.226462 
3082 1 0.0991992 0.109871 0.0897809 0.173126 
3476 2 0.110311 -0.0326034 0.104409 0.155347 
2869 1 -0.124767 0.0649794 0.0218795 0.142366 
4307 2 0.113611 0.177195 -0.0430512 0.214846 
177 1 -0.00133138 0.089712 0.011024 0.0903966 
363 1 0.0291912 -0.13522 -0.0620406 0.15161 
1450 1 0.118761 0.0929103 -0.0488865 0.158513 
3559 2 0.0156266 0.193371 0.222159 0.294943 
347 1 0.0338596 0.152925 0.146092 0.214185 
4237 2 -0.0156257 -0.117534 0.00594447 0.118717 
319 1 -0.0675459 -0.0321306 -0.0608172 0.0964031 
830 1 -0.104211 0.136661 -0.0504655 0.179117 
295 1 0.102618 -0.0911471 -0.0740672 0.155962 
937 1 -0.00457278 0.0756442 0.112017 0.135244 
268 1 0.113344 0.044304 0.146145 0.190179 
854 1 -0.0631408 0.158642 0.0200989 0.171924 
442 1 -0.148841 0.0687478 -0.161717 0.230288 
875 1 0.0426966 0.0177196 0.138644 0.146148 
501 1 0.183546 -0.0530052 0.177921 0.261064 
3378 1 -0.0722318 0.142166 -0.0162065 0.160285 
3291 1 0.229765 -0.0168829 -0.128219 0.263661 
314 1 -0.165423 -0.05749 0.146711 0.22846 
474 1 -0.121292 0.204536 -0.162947 0.288268 
3070 1 -0.0401649 0.101653 -0.067795 0.128619 
964 1 -0.268568 0.0868068 -0.0383716 0.284845 
793 1 -0.203963 -0.0477578 -0.0126366 0.209861 
3397 1 -0.127658 0.0836449 0.0117693 0.153073 
899 1 0.0605318 0.0421958 0.0611771 0.09585 
1337 1 0.0969835 0.0298456 0.0777186 0.127815 
3278 1 -0.0817654 -0.220412 -0.0645318 0.243785 
3544 2 0.0893088 0.0459796 0.0883223 0.133757 
1430 1 -0.113172 0.00177854 0.21301 0.241214 
3200 1 -0.00815043 0.00763937 0.0776655 0.0784647 
757 1 0.00411914 -0.035828 0.0995653 0.105895 
822 1 -0.146587 -0.15453 0.28444 0.35535 
819 1 -0.0200341 0.0179632 -0.066892 0.0721011 
107 1 -0.0913688 -0.164082 0.0954256 0.210659 
1354 1 -0.132226 -0.0461712 0.222097 0.262569 
3240 1 -0.265929 -0.0550015 -0.00764809 0.271665 
113 1 0.144945 0.0670728 0.0148754 0.160403 
504 1 -0.0114006 -0.0779058 0.109111 0.134553 
2795 1 -0.0187399 -0.0313285 0.0674945 0.0767344 
781 1 -0.0171945 -0.108811 0.132517 0.172326 
581 1 -0.106851 0.00816105 0.0775061 0.132253 
3541 2 -0.0333295 0.113436 0.0220744 0.120274 
786 1 0.0801677 -0.0607456 0.0135088 0.101486 
800 1 0.101776 -0.179615 -0.112217 0.234973 
367 1 0.124962 -0.0481613 0.0223466 0.135773 
2687 1 0.033758 0.0192999 -0.143589 0.148761 
3545 2 0.0620051 0.057518 -0.275697 0.288378 
491 1 0.112591 -0.105923 -0.0454804 0.161136 
840 1 -0.150056 0.0189168 -0.153748 0.215669 
187 1 0.0287813 0.00607759 0.128762 0.13208 
2814 1 -0.0509658 0.163366 0.0432938 0.176523 
1723 1 0.0388048 -0.0491562 -0.219935 0.228677 
3264 1 0.138595 0.0537619 8.51496e-05 0.148657 
440 1 -0.00786401 0.14009 0.181905 0.229731 
431 1 0.0445525 -0.0293944 0.185367 0.192899 
402 1 0.0368211 -0.103564 0.176007 0.207508 
968 1 0.210501 -0.0521484 0.166775 0.273577 
801 1 -0.0496356 -0.218567 -0.0397984 0.227639 
2656 1 0.0556474 0.176382 0.0721397 0.198523 
421 1 -0.131455 -0.137886 -0.0960279 0.213341 
4152 2 -0.324376 0.193181 0.142416 0.403511 
461 1 -0.130361 0.206706 -0.0456828 0.248612 
647 1 -0.0535097 0.188073 0.125615 0.232409 
3436 1 -0.107082 -0.0671824 0.0378397 0.131954 
3371 1 -0.136293 0.170905 -0.0433831 0.22286 
486 1 -0.0530169 0.180446 0.112786 0.2193 
308 1 -0.069543 -0.0653976 -0.129509 0.16089 
307 1 -0.0521499 -0.0321537 0.0941736 0.112348 
85 1 0.144494 -0.0300436 0.127458 0.195005 
4143 2 -0.379405 -0.0693703 0.216388 0.442249 
2873 1 -0.0842782 -0.108434 0.224234 0.262948 
2884 1 -0.228081 0.0879198 0.0391692 0.247558 
3339 1 -0.236345 0.173126 0.129237 0.320209 
3535 2 -0.00432231 0.0352904 0.0818184 0.0892095 
825 1 0.0895317 -0.157792 0.137291 0.227515 
1254 1 -0.0381306 0.0137878 0.0227799 0.0465077 
31 1 0.0217092 0.0552011 -0.0384606 0.0706942 
349 1 0.0147193 -0.0144807 -0.0440466 0.0486462 
3192 1 0.0345364 -0.118803 -0.0499931 0.13344 
3678 2 0.0490952 0.0856736 0.0971662 0.138534 
1289 1 0.0337984 0.169736 0.176567 0.247242 
3380 1 0.143775 -0.0764937 0.181991 0.24422 
128 1 -0.0597431 -0.0526046 0.103016 0.130187 
907 1 -0.0594414 -0.0474713 0.0613299 0.0977147 
1641 1 -0.0925657 0.0461059 -0.0138964 0.104342 
885 1 -0.0539302 -0.162547 -0.325119 0.367467 
1300 1 -0.0030255 -0.0793007 -0.0561273 0.097201 
1934 1 0.0217259 -0.029582 0.000884428 0.0367136 
891 1 -0.152821 -0.0668818 0.0702224 0.180993 
3778 2 0.00124791 0.0371381 -0.0467858 0.0597471 
1269 1 -0.171531 -0.264132 0.185532 0.365528 
1535 1 0.0699385 -0.0632525 0.0271815 0.0981382 
573 1 -0.0448177 -0.0480495 0.152044 0.165634 
3844 2 0.000732632 -0.0310277 -0.203247 0.205603 
631 1 0.113565 0.0848472 0.0955647 0.170964 
606 1 -0.0285813 -0.0591892 0.155198 0.168543 
3600 2 -0.00421672 0.0591214 0.106426 0.121818 
627 1 -0.148232 -0.0524517 0.000650205 0.15724 
1474 1 -0.0622038 -0.0283983 0.266048 0.274695 
1569 1 -0.0923682 -0.243164 -0.0888683 0.274878 
63 1 -0.141126 0.00510347 0.13782 0.197324 