ITEM: TIMESTEP
9800
ITEM: NUMBER OF ATOMS
4320
ITEM: BOX BOUNDS pp pp pp
0.0000000000000000e+00 1.9309999999999999e+01
0.0000000000000000e+00 1.9309999999999999e+01
0.0000000000000000e+00 9.6549999999999994e+00
ITEM: ATOMS id type c_displacement[1] c_displacement[2] c_displacement[3] c_displacement[4] 
3196 1 -0.241972 -0.0545385 -0.358532 0.43597 
381 1 -0.139348 -0.0368163 0.158259 0.214054 
327 1 0.20356 0.0139481 0.122284 0.237875 
484 1 -0.029841 0.0515018 -0.0689393 0.09108 
728 1 0.0771031 0.0155268 0.1516 0.170788 
303 1 0.148973 -0.256257 -0.350962 0.459386 
3460 2 0.0908343 0.0120075 0.135943 0.163938 
59 1 0.0169152 -0.0206322 0.0222235 0.0347232 
155 1 -0.396367 0.0631968 0.0671208 0.406947 
1454 1 -0.17178 0.114398 -0.0787083 0.220885 
2945 1 0.0705271 0.00342193 -0.202908 0.214842 
3230 1 0.214899 0.0306534 -0.00445118 0.217119 
3651 2 0.0175467 0.0444156 -0.0790633 0.0923668 
66 1 -0.003189 0.0570372 -0.229414 0.23642 
400 1 0.0285407 0.149093 -0.108609 0.186653 
677 1 -0.0695402 -0.0217251 0.128811 0.147987 
87 1 0.0811026 0.216352 -0.101421 0.252333 
3346 1 0.074527 0.187767 0.0264155 0.203736 
2478 1 -0.00680236 0.162983 0.0738708 0.179072 
727 1 0.0852256 -0.0409981 -0.197602 0.219068 
688 1 0.158804 0.104833 0.0418362 0.19483 
58 1 0.100812 -0.044423 -0.298232 0.317929 
3514 2 0.010432 -0.0582785 -0.243997 0.251078 
18 1 0.261304 0.113979 0.0580572 0.290932 
190 1 -0.010426 0.0266604 -0.134424 0.137438 
298 1 0.0947198 -0.11288 -0.104501 0.180649 
3618 2 0.167673 0.00631891 -0.0389914 0.172263 
106 1 -0.0121206 -0.0888279 -0.111602 0.143151 
217 1 -0.00230275 -0.0157801 0.0200055 0.0255838 
775 1 0.107143 0.0254238 -0.0797153 0.135943 
3627 2 0.10461 0.160175 -0.0600911 0.200525 
180 1 0.0166853 -0.0170701 0.127203 0.129423 
546 1 -0.151669 0.0819028 0.0663126 0.184686 
3835 2 0.00290427 -0.0764728 -0.0513113 0.0921378 
96 1 0.172152 0.0902815 -0.170478 0.258553 
3118 1 -0.0720137 0.0725123 -0.0153074 0.103336 
562 1 -0.104051 -0.0475785 -0.0484832 0.124261 
70 1 0.0192257 0.184268 0.0618167 0.195309 
121 1 0.0230711 -0.107343 0.0402484 0.116939 
1118 1 -0.0789486 -0.202348 0.021053 0.218222 
4214 2 0.14322 -0.00225318 0.115362 0.183917 
65 1 -0.0429451 0.149978 0.0751753 0.173173 
226 1 0.147025 -0.0787549 -0.0357509 0.170578 
532 1 0.0182567 0.0240505 0.210591 0.212744 
3578 2 -0.141017 -0.140901 0.235459 0.308512 
473 1 -0.00658134 0.0305653 -0.240535 0.242559 
246 1 -0.182609 0.0553638 0.107528 0.219028 
817 1 0.353582 -0.185005 0.0966047 0.410585 
4071 2 0.120156 -0.0585491 0.22578 0.262378 
2838 1 0.0613005 0.118965 -0.0160732 0.134792 
536 1 0.0288526 -0.0390554 0.117529 0.127165 
894 1 -0.0293205 -0.0630686 -0.198503 0.210335 
289 1 0.0591796 -0.121894 0.21247 0.252 
351 1 -0.119751 0.0367979 -0.050588 0.135106 
3135 1 0.0342348 0.356245 -0.25205 0.437734 
737 1 0.162611 0.0874912 -0.35334 0.39868 
1415 1 0.0407397 0.11856 -0.14568 0.192195 
527 1 -0.0889429 -0.191095 -0.0613143 0.219517 
3002 1 -0.0596968 0.119427 -0.0539263 0.143995 
3189 1 0.365041 -0.0983431 -0.156834 0.409296 
712 1 -0.0347616 -0.107669 -0.092468 0.146121 
718 1 -0.0594769 -0.117073 -0.01043 0.131728 
3469 2 -0.223103 -0.248849 -0.114384 0.353248 
3916 2 -0.348057 -0.267053 -0.0674079 0.443852 
110 1 -0.0325123 -0.11712 -0.130427 0.178284 
4177 2 0.192979 -0.495302 0.148382 0.55189 
93 1 -0.135756 0.107419 0.0878516 0.19413 
569 1 0.067139 0.0663982 -0.0912035 0.13128 
639 1 -0.128498 0.0882011 0.14156 0.210548 
21 1 -0.0776897 -0.022472 0.135994 0.158225 
3353 1 -0.179198 -0.213464 -0.175383 0.329299 
167 1 0.0277131 -0.0546846 0.135615 0.148829 
823 1 0.143496 -0.0345305 -0.0280729 0.150238 
2596 1 -0.0702139 -0.119513 0.0713693 0.155907 
50 1 0.013765 -0.241826 0.086851 0.257318 
2495 1 0.0963593 0.0234177 0.134013 0.166712 
28 1 0.0152153 0.0773204 -0.0592175 0.0985731 
3055 1 0.0746358 0.0525884 0.0132899 0.0922641 
12 1 0.113073 -0.0343389 -0.00197046 0.118188 
738 1 0.14098 -0.188483 -0.077396 0.247773 
210 1 0.136909 -0.0639499 0.105016 0.184017 
232 1 -0.139849 0.0993806 -0.100057 0.19861 
4170 2 -0.101867 -0.0900125 0.272222 0.304276 
2453 1 0.154548 0.111162 0.139836 0.236212 
3167 1 0.0800217 -0.0496672 -0.00994324 0.0947057 
339 1 0.200859 0.250363 0.0724272 0.329046 
390 1 0.132747 0.02155 0.101815 0.168679 
203 1 -0.00470768 -0.0145588 0.119471 0.120446 
3582 2 0.0885244 0.19118 0.00654902 0.210782 
3632 2 -0.111063 0.155847 0.0188632 0.192299 
231 1 -0.108044 0.0541266 0.159559 0.200155 
323 1 -0.0632503 0.0883157 -0.0790938 0.134373 
3244 1 0.00067438 0.115686 -0.150189 0.18958 
118 1 0.0732788 0.167563 0.104596 0.210683 
608 1 0.128948 -0.0143744 0.0493086 0.1388 
2936 1 -0.0137562 0.232559 -0.220309 0.320638 
2960 1 -0.26082 -0.22798 -0.156285 0.380036 
2735 1 -0.185096 -0.0341706 0.163761 0.249491 
29 1 -0.14917 0.269521 -0.160689 0.347439 
753 1 -0.179709 -0.221817 -0.123693 0.311124 
3467 2 -0.225524 0.298852 0.297209 0.478024 
553 1 -0.258683 0.153349 -0.563663 0.638866 
3251 1 -0.242653 -0.0800661 -0.40634 0.480004 
2768 1 0.187345 0.0584018 -0.0133796 0.196693 
4228 2 0.266126 0.0788232 -0.193346 0.338259 
437 1 0.2686 0.121759 -0.264789 0.396339 
53 1 0.121737 0.13367 -0.320641 0.368101 
593 1 -0.0260019 0.135209 0.00784284 0.13791 
609 1 0.353579 0.0364251 -0.333804 0.487617 
3040 1 0.111858 0.126614 -0.125461 0.210437 
725 1 0.000407594 -0.0792189 -0.0715204 0.106728 
610 1 0.292213 -0.00976907 0.0379038 0.294823 
89 1 -0.00823547 -0.103833 0.0118658 0.104833 
3149 1 -0.0670866 -0.0540584 0.146263 0.169752 
550 1 0.0191694 -0.0776945 0.0281631 0.0848355 
147 1 0.0830488 -0.0507605 0.138139 0.168985 
247 1 0.0331511 -0.0668155 0.119153 0.140573 
594 1 0.13853 0.0706598 -0.0634023 0.167938 
3554 2 -0.052767 0.00389224 -0.00414516 0.0530725 
3786 2 -0.133651 0.115821 0.00172681 0.176862 
5 1 0.0146152 -0.00594129 0.107157 0.108312 
2591 1 0.0106024 0.133495 0.0148351 0.134735 
3232 1 -0.107562 0.172485 0.020022 0.204258 
1215 1 0.0774486 -0.0487202 -0.0758551 0.118853 
859 1 0.189386 0.098657 -0.0389949 0.217073 
3152 1 -0.0384945 0.0333295 -0.0359909 0.062354 
151 1 0.0791212 -0.00751502 0.0520972 0.0950303 
3743 2 -0.0213472 0.101105 -0.0680465 0.123727 
3023 1 -0.00856342 0.250489 -0.119728 0.277764 
2461 1 -0.0443113 0.114969 -0.0890471 0.152022 
988 1 -0.0252877 0.0846342 -0.181707 0.202039 
23 1 -0.0174303 0.0576947 -0.159763 0.170754 
3730 2 -0.0225624 -0.115224 -0.20728 0.238223 
43 1 0.00146191 0.0197302 -0.0020346 0.0198886 
4289 2 -0.127597 0.136898 0.038756 0.191112 
255 1 0.0463643 -0.0722688 -0.0597532 0.104608 
3611 2 -0.0713506 0.0120589 0.0325701 0.0793545 
3478 2 0.155262 0.0525176 0.247477 0.296832 
424 1 0.164969 0.0214536 0.0285379 0.168788 
3199 1 0.0679582 0.00886648 -0.0289537 0.0743992 
3006 1 0.085844 0.0236031 0.136661 0.163103 
623 1 -0.00618678 0.0196315 -0.154384 0.15575 
197 1 -0.155485 0.285465 -0.0644123 0.331384 
103 1 -0.000781669 0.0746914 -0.182046 0.196774 
3712 2 -0.0635001 -0.244685 -0.348739 0.430723 
4053 2 0.0462855 0.243539 0.0668508 0.256754 
1133 1 0.310422 0.0541693 -0.020192 0.315759 
2500 1 0.0669982 -0.0706043 -0.0908379 0.133136 
3188 1 0.150397 0.266009 -0.106736 0.323685 
529 1 -0.188006 -0.1822 -0.182536 0.319159 
825 1 0.137551 -0.0177381 0.143489 0.19956 
140 1 -0.102112 -0.306705 0.00886557 0.323379 
2931 1 0.0338039 -0.138643 0.0451327 0.149671 
559 1 0.0398122 0.0810788 -0.231341 0.24835 
691 1 -0.0640968 -0.592442 -0.0543686 0.598375 
354 1 0.0827477 -0.0449061 0.0264343 0.097788 
3464 2 -0.301766 -0.69591 0.026857 0.758996 
3491 2 -0.320343 0.482058 -0.63457 0.858882 
1331 1 -0.172726 -0.113074 0.227422 0.30715 
1480 1 -0.361309 -0.307123 0.111241 0.487076 
2968 1 0.274833 -0.0376637 0.0652116 0.284964 
98 1 0.392643 -0.161917 -0.00808498 0.424795 
2494 1 0.0501333 -0.153218 -0.0859664 0.1827 
216 1 -0.0420426 -0.0851348 -0.0929688 0.132886 
446 1 0.0210698 -0.0220022 0.0256048 0.039795 
237 1 0.0244856 0.0867013 -0.0468167 0.101531 
40 1 0.231843 -0.0323149 -1.80934e-05 0.234084 
1130 1 0.135029 0.0299776 -0.0203948 0.139812 
3041 1 0.0398371 -0.259555 -0.192576 0.32564 
604 1 -0.0913028 -0.0340836 0.0388517 0.104916 
721 1 -0.246488 -0.144293 -0.129285 0.313514 
2994 1 -0.0225948 -3.21095e-05 0.103358 0.105799 
3164 1 0.0476293 0.221892 0.100808 0.248328 
1149 1 0.0891135 -0.193252 0.365553 0.422985 
64 1 0.016116 -0.0379256 -0.246894 0.250309 
193 1 0.0152881 0.117058 -0.0890403 0.147866 
44 1 0.0414896 -0.0854327 -0.129326 0.160453 
2996 1 0.0440695 -0.0938905 -0.199846 0.225158 
4212 2 -0.0470262 0.292226 -0.149712 0.331695 
3279 1 0.0216012 0.0444935 -0.107994 0.118782 
178 1 0.136475 -0.0193936 -0.167049 0.21658 
330 1 -0.019845 0.23869 -0.0406623 0.24294 
3643 2 0.0101593 -0.0505671 -0.0498781 0.0717501 
3841 2 -0.00661957 0.0517996 -0.0347205 0.0627099 
949 1 0.0392675 0.0617593 -0.054211 0.0910767 
600 1 -0.136572 -0.0830772 -0.100933 0.189054 
338 1 -0.0927303 -0.179026 0.0528859 0.208437 
4101 2 0.0923595 -0.0464168 0.0751038 0.127771 
3216 1 -0.00852288 0.190407 -0.0249885 0.192229 
2981 1 -0.0834775 -0.00182268 -0.226888 0.241765 
4217 2 -0.174866 -0.231091 0.160382 0.331215 
479 1 -0.0615706 0.027446 0.215555 0.22585 
3335 1 -0.0674915 -0.0151506 0.0103692 0.069944 
1457 1 -0.0199657 -0.00671639 0.0368143 0.042415 
3037 1 -0.0654157 0.11078 -0.0462368 0.136709 
4253 2 0.0957634 0.122006 -0.157887 0.221324 
387 1 0.014297 0.02671 0.0152227 0.0339051 
3736 2 -0.0996831 0.256611 0.0646129 0.282773 
78 1 0.102355 0.117776 0.0491278 0.163589 
174 1 0.0212808 -0.246579 -0.0164434 0.248041 
717 1 -0.0159206 -0.281786 0.172109 0.330573 
508 1 -0.0135099 -0.278005 0.056531 0.284016 
3537 2 0.201582 -0.037749 -0.139612 0.248097 
747 1 -0.0195055 -0.014187 -0.00355984 0.0243805 
497 1 0.03497 -0.0972595 0.0135521 0.10424 
958 1 -0.0309383 -0.302405 -0.00374328 0.304007 
3130 1 -0.00169398 -0.0605735 -0.137658 0.150405 
4163 2 0.0112335 -0.16501 0.104457 0.195617 
3394 1 -0.0614073 -0.0540499 0.0425859 0.0922269 
3830 2 -0.408062 -0.169467 0.0238413 0.442495 
133 1 0.127206 -0.111025 -0.216703 0.274714 
4204 2 -0.0773179 -0.211854 -0.000643661 0.225523 
86 1 0.305802 -0.0812045 -0.137259 0.34489 
759 1 0.0423434 -0.151343 -0.158276 0.223045 
3411 1 -0.13886 0.0253732 0.118511 0.184312 
835 1 -0.249672 0.193904 -0.17246 0.360107 
3057 1 0.369104 -0.00838232 -0.0978021 0.381933 
3620 2 -0.0832343 0.298818 -0.00790643 0.310295 
241 1 -0.158855 0.0863544 -0.0328148 0.183763 
704 1 -0.0216491 0.265727 -0.086274 0.280219 
157 1 0.0259316 0.0970657 -0.03247 0.105586 
54 1 -0.00997634 0.215841 -0.216317 0.305745 
493 1 -0.0152145 0.23145 -0.09773 0.251698 
204 1 0.00587751 -0.052977 -0.0219741 0.0576539 
254 1 0.192121 0.103495 -0.161211 0.271313 
3599 2 -0.201575 0.230849 -0.104708 0.323863 
3518 2 -0.27972 0.254237 0.0313328 0.379291 
67 1 0.161891 0.282493 0.0592764 0.330945 
2988 1 0.0293812 0.192515 -0.0343759 0.197755 
3030 1 -0.0182518 0.174556 -0.0713264 0.189447 
4050 2 0.174629 0.166941 -0.246842 0.345393 
540 1 -0.0352377 0.125765 -0.093359 0.160544 
3479 2 0.138255 0.288215 0.0410434 0.322284 
234 1 0.138849 -0.106665 -0.0193963 0.176161 
1036 1 0.171141 -0.0247742 -0.0536404 0.181053 
3369 1 -0.016912 -0.0197793 0.0880741 0.0918383 
3607 2 -0.0374602 -0.0876874 0.104076 0.141153 
3139 1 0.0783818 0.0148065 -0.0203233 0.0823163 
644 1 -0.116861 -0.0856646 -0.08459 0.167781 
4269 2 0.0122313 0.0965138 0.152762 0.18111 
3003 1 -0.0982946 -0.159469 -0.0954069 0.210225 
563 1 -0.0453672 0.198666 -0.0113702 0.204098 
214 1 0.00446377 0.0303844 -0.0703749 0.0767839 
640 1 -0.0914608 0.014242 0.0896677 0.128873 
199 1 0.00100797 -0.0297771 -0.0199597 0.035862 
245 1 0.0849407 -0.121823 0.0166332 0.14944 
2758 1 -0.148441 -0.0447232 0.00944655 0.155319 
3056 1 -0.0383943 -0.113969 0.011095 0.120773 
3468 2 -0.127106 -0.101326 0.161157 0.228898 
4089 2 0.0929806 0.0997271 0.0563471 0.147533 
920 1 0.0519432 0.0244253 -0.0212199 0.0611962 
249 1 -0.246743 -0.0576313 0.0350534 0.255797 
2684 1 -0.435783 0.240454 -0.219395 0.543929 
3096 1 0.0320158 -0.0549452 -0.0356511 0.072904 
240 1 0.124608 0.0834632 -0.127559 0.196887 
181 1 -0.131825 -0.0896177 0.0665597 0.17274 
46 1 0.0968517 -0.317096 0.04975 0.335269 
3211 1 -0.0295409 -0.0390867 0.0672037 0.0831671 
3603 2 0.0199561 -0.396315 0.277047 0.483961 
2939 1 -0.242309 0.142488 -0.117639 0.304721 
1102 1 0.128359 0.502548 -0.363329 0.633276 
3701 2 0.366544 0.0263513 -0.00885763 0.367597 
3513 2 -0.0428401 -0.184191 -0.0656039 0.200163 
312 1 0.268921 0.0805056 -0.293785 0.406337 
587 1 0.0773122 0.0133031 0.0230882 0.0817754 
135 1 -0.10314 -0.284172 -0.0602402 0.308254 
3512 2 0.0143769 0.0946885 -0.0922538 0.132979 
134 1 -0.0157372 0.203394 -0.11618 0.234765 
191 1 0.197876 0.14939 -0.0393553 0.251041 
257 1 -0.0526826 0.0334908 -0.11792 0.133425 
195 1 0.0339143 -0.0174525 0.00562329 0.0385538 
2995 1 0.0620851 -0.281488 -0.191278 0.345944 
685 1 -0.020623 -0.17952 -0.288676 0.340568 
602 1 -0.0507552 -0.0291565 0.0400459 0.0709215 
3092 1 0.0138981 0.058269 -0.0274455 0.0658915 
4195 2 0.105898 -0.0421119 -0.193437 0.224512 
3634 2 -0.118166 0.233923 0.0897587 0.277019 
2977 1 -0.0173212 -0.0320651 -0.046385 0.0589895 
2004 1 -0.129348 0.163351 0.0720466 0.220466 
674 1 0.126753 -0.00870466 -0.0199357 0.128606 
182 1 0.136344 -0.0345301 -0.0798887 0.161753 
427 1 0.0447698 0.149603 -0.0403568 0.161289 
4173 2 0.11517 0.117671 -0.079885 0.183009 
2950 1 0.0212579 -0.0636939 -0.0851732 0.108459 
6 1 0.0486412 0.125192 -0.0346181 0.138699 
690 1 0.132868 -0.0320142 -0.0194081 0.138041 
902 1 0.0395741 0.0482851 0.0806406 0.101983 
154 1 0.0779845 -0.146336 -0.0150061 0.166497 
1278 1 0.176085 -0.00272941 -0.0674402 0.188578 
3115 1 -0.126523 0.175547 0.0317425 0.218706 
742 1 0.186687 0.0425178 -0.250165 0.315028 
2926 1 -0.039556 -0.0937575 0.020631 0.103831 
710 1 0.0688754 -0.0425097 -0.0403689 0.0904464 
580 1 -0.177462 0.0443227 0.142284 0.231737 
3408 1 -0.0595354 -0.0703006 0.150969 0.176857 
95 1 -0.194903 -0.108907 0.105832 0.247079 
80 1 -0.266558 0.0280286 0.027274 0.269412 
3608 2 0.0718583 0.0815894 -0.0115849 0.109337 
143 1 0.0873505 0.148548 0.0863379 0.192746 
3679 2 -0.10946 0.0303051 -0.127092 0.170447 
2873 1 -0.0559278 0.322412 0.1802 0.373563 
1179 1 0.198504 0.00955173 -0.0651654 0.209145 
215 1 -0.0233556 -0.0904892 -0.00653481 0.0936829 
205 1 -0.293514 0.0389369 0.16261 0.3378 
694 1 -0.210373 0.164615 0.109588 0.288729 
861 1 -0.255216 -0.0356717 0.0340906 0.259942 
3549 2 -0.220952 -0.0844897 -0.00386257 0.236587 
3401 1 -0.0447386 0.168913 0.163106 0.239033 
1077 1 -0.143371 0.101953 0.150567 0.23156 
4257 2 0.487535 0.253311 -0.089672 0.556685 
3393 1 -0.211923 0.0331934 0.131365 0.251535 
3281 1 0.0522765 0.0598418 0.114478 0.139352 
3257 1 -0.0408898 -0.0660991 -0.122389 0.144983 
635 1 -0.209885 -0.0524367 0.0242965 0.217696 
512 1 0.0691189 0.12859 0.102059 0.178126 
300 1 -0.0711999 0.069328 0.0447182 0.108975 
393 1 -0.178775 -0.0506634 0.0574505 0.194494 
2740 1 -0.0733234 0.155004 -0.00236651 0.171488 
4006 2 -0.236589 -0.0845598 0.124479 0.280392 
3341 1 -0.173084 0.0938531 0.00106642 0.196895 
886 1 -0.0391361 0.0245253 0.163421 0.169822 
286 1 -0.0639205 -0.068583 0.0232364 0.0965888 
3095 1 -0.345826 0.152394 -0.116501 0.395464 
3197 1 -0.229485 0.0242147 -0.129724 0.264723 
277 1 -0.0281856 0.0759642 0.0365934 0.0889048 
364 1 -0.112363 -0.0395526 0.188797 0.223235 
1367 1 -0.0864432 -0.00474317 -0.0600069 0.105336 
411 1 -0.139428 0.049718 0.13091 0.197609 
614 1 -0.0246999 -0.121615 -0.166775 0.207881 
3404 1 -0.0148285 -0.104531 0.0388848 0.112511 
1354 1 -0.110268 0.037617 0.0530498 0.128017 
3389 1 -0.000977221 -0.281896 -0.0983255 0.298553 
1324 1 -0.0556926 0.119787 0.183748 0.226305 
966 1 -0.111851 0.0307782 0.041887 0.123339 
357 1 -0.224448 0.0154418 0.0934207 0.243604 
362 1 0.0602551 0.0569509 0.0694254 0.108139 
478 1 -0.221792 0.103389 -0.06793 0.253959 
4159 2 -0.427669 0.591553 -0.0314943 0.730635 
2696 1 -0.0192434 -0.12288 0.0523054 0.134929 
3612 2 -0.0519223 0.040733 0.0880374 0.110026 
903 1 0.0782929 0.0993422 -0.147117 0.194016 
309 1 -0.018308 0.00294902 -0.0897356 0.0916317 
780 1 -0.0623176 -0.000733354 -0.00431849 0.0624714 
2710 1 0.0010492 -0.00917022 -0.0178584 0.0201027 
3313 1 0.055298 -0.0679683 -0.156161 0.179063 
924 1 0.202903 0.171229 -0.0418839 0.268781 
2365 1 -0.099154 -0.093176 -0.033858 0.140213 
265 1 -0.274875 0.43745 -0.378944 0.640717 
3631 2 0.00740145 0.00843379 -0.0594729 0.0605222 
3333 1 0.154112 -0.0544181 -0.0338633 0.166909 
3526 2 0.0569297 0.0174853 -0.113013 0.127745 
771 1 -0.185395 0.0628448 -0.0659837 0.206579 
3303 1 -0.121881 -0.0576872 0.0837101 0.158714 
3249 1 0.0118961 0.0303869 0.00203767 0.0326961 
92 1 0.0532104 -0.0319968 -0.0738944 0.096517 
3379 1 0.0837804 -0.0103504 0.0301007 0.0896233 
228 1 0.0131156 -0.000164146 -0.12964 0.130302 
1449 1 0.0977563 -0.0612962 0.00288799 0.11542 
389 1 0.0943651 -0.0544509 -0.0735757 0.131465 
3290 1 -0.257385 -0.0788051 0.0146279 0.269576 
3162 1 -0.185609 0.00597716 -0.021981 0.187001 
462 1 -0.100422 -0.0346277 0.128019 0.166351 
2966 1 -0.0072371 0.0366162 0.00389268 0.037527 
3022 1 -0.00658501 0.16287 -0.00542644 0.163094 
750 1 -0.12975 0.0185815 0.140659 0.192263 
449 1 -0.032467 0.134416 -0.0284559 0.141179 
100 1 -0.12786 -0.0368563 0.098927 0.16581 
3094 1 0.0165318 -0.0976028 0.0947983 0.137063 
763 1 0.104416 0.0320689 0.243142 0.26655 
3180 1 -0.0622807 -0.0797188 0.0838992 0.131427 
3647 2 -0.253256 0.130898 0.0435149 0.288386 
2890 1 0.0891712 0.142717 0.129877 0.212574 
1285 1 -0.0822118 0.214215 0.290637 0.370293 
3209 1 -0.103767 0.160842 -0.0803842 0.207604 
943 1 0.164377 0.00323266 0.099575 0.192212 
3305 1 0.0801329 0.0272036 0.109574 0.138448 
3409 1 0.0656058 -0.0117616 -0.0774669 0.102194 
4318 2 -0.267017 0.0651705 0.197189 0.338273 
356 1 -0.0826569 0.0889931 0.105911 0.161149 
3883 2 0.0710079 0.0758195 0.0403322 0.111433 
3227 1 -0.0873445 -0.0664304 0.137888 0.176225 
373 1 0.0684686 -0.0257941 0.0209957 0.076119 
4297 2 -0.237218 -0.0457162 0.268217 0.360975 
3531 2 -0.0232571 -0.154565 -0.112577 0.192627 
398 1 -0.185825 0.0379393 0.131255 0.230648 
291 1 0.11918 0.146048 -0.0178165 0.189345 
3225 1 0.210832 0.0778298 -0.130692 0.259977 
2961 1 -0.15859 -0.1937 -0.144562 0.289082 
3221 1 0.0437581 0.0183607 0.0115935 0.0488497 
836 1 -0.123709 -0.0749806 -0.0260396 0.146983 
394 1 0.153373 0.0406032 -0.0704895 0.173611 
412 1 -0.00907881 0.00123408 0.0811505 0.0816661 
1212 1 -0.0888755 -0.0152708 0.0342665 0.0964688 
3573 2 -0.17185 0.178632 0.050749 0.253017 
3360 1 -0.193087 -0.0129385 -0.202052 0.279777 
3392 1 -0.0170717 -0.148637 -0.0526223 0.158599 
3319 1 -0.00324174 0.0312033 -0.052959 0.0615533 
3588 2 0.111185 0.00245534 -0.0187281 0.112778 
306 1 -0.0739318 -0.0273138 -0.0321126 0.0851068 
3093 1 -0.0609629 0.08836 -0.032413 0.112136 
2745 1 0.0893758 0.0994914 0.10677 0.171132 
355 1 -0.0891976 -0.0948916 -0.106979 0.168538 
3097 1 0.124361 0.142974 -0.152136 0.243007 
353 1 0.00117973 0.0227661 0.0709981 0.0745682 
468 1 0.119311 0.0492085 0.0435845 0.136221 
3324 1 0.149484 0.0463341 -0.154412 0.219853 
951 1 0.0538364 0.187828 0.124268 0.231561 
2737 1 0.0286691 -0.126342 0.0222826 0.131456 
2959 1 -0.0378445 0.0353363 -0.0967442 0.109728 
4284 2 -0.117669 0.16489 0.177481 0.269321 
4225 2 -0.193384 0.434992 -0.112152 0.489074 
3483 2 0.0205801 0.0612894 0.0876697 0.108931 
2479 1 -0.230898 0.0697605 -0.0694654 0.251009 
601 1 -0.0402517 0.154516 0.101165 0.189023 
3617 2 0.0466446 0.0173702 0.115759 0.126006 
206 1 -0.0461274 0.0237151 0.00665735 0.0522921 
71 1 0.0309973 0.0905079 0.00680718 0.0959107 
4185 2 0.0826693 -0.109492 -0.0753902 0.156545 
3561 2 -0.0270602 0.19867 0.0367662 0.203847 
716 1 0.246496 0.144539 -0.0965018 0.301603 
3150 1 -0.128175 0.054646 -0.0488551 0.147655 
3350 1 0.0430909 -0.0174034 -0.0106329 0.0476735 
287 1 -0.104595 -0.0808472 -0.0407488 0.138336 
3676 2 0.169342 -0.0221782 -0.00188393 0.170799 
388 1 0.0419744 0.163047 0.169951 0.239227 
1313 1 0.138302 0.0741401 -0.00756871 0.157103 
444 1 0.164472 0.0709471 0.0690835 0.191982 
3668 2 0.0999655 0.170978 0.124526 0.233952 
838 1 -0.0198308 0.0105314 0.0572873 0.0615305 
460 1 0.0517935 -0.0584301 0.117811 0.141336 
499 1 0.0425887 0.0340391 -0.0152819 0.0566215 
3548 2 -0.519057 -0.25788 0.045574 0.581377 
4056 2 -0.324175 0.00287436 0.182164 0.371862 
3658 2 -0.0940378 0.0811479 0.203167 0.238128 
4264 2 -0.00943136 -0.105772 -0.1471 0.181425 
3321 1 0.0777668 -0.242532 0.261304 0.364896 
482 1 0.0785374 -0.0272409 0.0356677 0.0904565 
1314 1 0.0769613 0.0510823 0.115264 0.14771 
3672 2 0.174231 -0.014785 -0.0176061 0.175742 
375 1 0.078789 -0.141934 0.128802 0.207227 
94 1 0.316823 -0.211329 0.0986831 0.393415 
37 1 -0.0462124 -0.0534204 0.052177 0.0878167 
4309 2 -0.100463 -0.0380976 0.085881 0.137549 
392 1 -0.0635851 -0.00630717 0.160886 0.17311 
1145 1 0.0507062 -0.00877217 0.13757 0.14688 
436 1 0.0376212 0.0292441 0.0179721 0.0509271 
792 1 -0.104399 -0.18361 -0.0437191 0.215692 
3293 1 0.0111703 -0.130434 0.107941 0.169674 
901 1 -0.0796922 -0.229061 -0.205517 0.317894 
318 1 -0.119805 -0.195221 -0.0914966 0.24665 
2861 1 -0.0596439 -0.161418 -0.130346 0.215878 
3320 1 -0.10739 -0.190188 0.0285314 0.220268 
3314 1 -0.0601716 -0.128509 -0.224049 0.265204 
626 1 0.0594084 -0.0284893 0.0722191 0.0977578 
4014 2 -0.110749 -0.0825717 0.1578 0.209725 
221 1 -0.280913 0.16973 0.151235 0.361376 
3337 1 0.00937493 0.061462 -0.10512 0.12213 
3808 2 0.00543949 0.0635176 0.0931406 0.112868 
160 1 -0.224668 0.100664 0.0187502 0.246902 
962 1 0.0298368 -0.0434541 0.137113 0.146896 
2732 1 -0.0760193 -0.0754421 0.0601944 0.122857 
433 1 0.0960865 0.018106 -0.0929194 0.134887 
3380 1 -0.0298256 -0.00460567 0.128302 0.131803 
4271 2 0.117266 0.0573028 0.0392347 0.136287 
1172 1 0.0593816 -0.0998442 0.108382 0.158876 
652 1 0.0460587 -0.110325 0.0532676 0.130883 
3568 2 0.0422284 -0.0122205 0.0212012 0.0488065 
3433 1 0.0551403 -0.048004 0.0227109 0.0765547 
3419 1 -0.0122032 -0.0804807 0.0939669 0.124322 
3535 2 -0.00270525 0.137118 0.0472543 0.145057 
4154 2 -0.424828 0.226455 -0.136184 0.500307 
3560 2 0.0794157 -0.10134 0.050499 0.1383 
3383 1 -0.0609978 0.00355263 0.0507588 0.0794343 
325 1 0.214092 -0.0465555 0.0384834 0.222449 
292 1 0.0926214 -0.0217891 0.109078 0.144746 
3444 1 0.150618 -0.213111 0.0884862 0.275557 
908 1 0.155545 -0.0909381 0.0772274 0.196031 
3504 2 0.294455 -0.211976 0.0658304 0.368743 
423 1 0.198908 -0.0551721 0.0943172 0.226945 
502 1 0.0820014 -0.0217704 0.0968719 0.128772 
3435 1 0.0139945 -0.11173 0.058616 0.126946 
402 1 0.00600623 0.264128 0.0780161 0.275474 
3331 1 -0.105406 0.00352784 -0.0181219 0.10701 
4182 2 -0.209701 -0.108695 -0.0813047 0.249799 
874 1 0.198648 -0.048464 0.34616 0.40204 
980 1 0.00364709 -0.162342 0.0327637 0.165655 
225 1 0.0111829 -0.102339 0.150159 0.18206 
439 1 0.292055 -0.0833228 0.274647 0.409475 
4307 2 -0.0337735 -0.0599313 -0.132546 0.149335 
810 1 -0.0709439 0.0859896 0.0362395 0.11722 
430 1 -0.22632 -0.108408 0.0583198 0.257632 
4280 2 0.215321 0.221301 -0.191655 0.363413 
416 1 -0.0667566 -0.0128697 0.2149 0.225398 
365 1 0.0570486 -0.0620583 0.166879 0.186961 
3799 2 -0.0800629 -0.122136 -0.0866546 0.169813 
2819 1 -0.0117621 -0.0148262 0.0909976 0.0929448 
382 1 -0.0278555 0.0894453 -0.0818893 0.124428 
295 1 -0.0616825 -0.0590793 -0.127538 0.153496 
187 1 -0.129141 0.0284597 0.1711 0.216246 
490 1 -0.0713571 -0.0351431 -0.22214 0.235951 
2776 1 -0.0595812 -0.0095644 0.165666 0.176314 
3266 1 -0.127408 0.0132757 -0.124175 0.178405 
2973 1 -0.167649 -0.048567 0.0164913 0.17532 
957 1 0.0966969 -0.143439 -0.200959 0.26516 
795 1 -0.000441495 -0.0841467 0.107378 0.136422 
4239 2 0.678151 1.47806 -0.734095 1.78422 
3291 1 0.170146 -0.0893186 0.116251 0.224592 
4256 2 -0.234674 -0.619185 0.143039 0.677438 
1304 1 0.126012 0.00282654 0.039105 0.131971 
4285 2 0.0266717 0.152866 -0.433908 0.460821 
107 1 -0.332726 -0.17222 -0.0142096 0.374924 
496 1 0.104597 -0.111746 0.111375 0.189294 
2993 1 -0.305925 0.152137 0.0058373 0.341716 
517 1 0.220761 -0.247664 -0.032239 0.333335 
279 1 -0.0133672 0.217996 0.130376 0.254359 
248 1 0.1414 0.127378 0.0651596 0.201159 
783 1 -0.356396 -0.171349 -0.113394 0.411384 
647 1 0.159712 0.0436221 -0.0209836 0.166887 
917 1 -0.0454291 -0.078173 -0.0102165 0.0909901 
3322 1 0.0802389 0.0065802 0.187914 0.204434 
3863 2 -0.119284 -0.0881888 0.00048195 0.148345 
274 1 -0.0336327 -0.149445 -0.00355023 0.153224 
1091 1 0.0106846 0.00557124 0.192837 0.193213 
3396 1 0.0718442 -0.02065 0.0881396 0.115571 
3420 1 0.0116508 -0.0830331 0.0487955 0.0970116 
863 1 0.0257524 0.00417787 0.166484 0.168516 
2545 1 -0.00950048 -0.0602908 -0.00204431 0.0610689 
3327 1 -0.0284381 -0.115765 -0.0480304 0.128519 
3674 2 -0.0435857 0.00609185 0.0531415 0.0689989 
1418 1 0.127488 0.0308288 -0.0652987 0.146518 
443 1 -0.126099 -0.107488 -0.000869949 0.165696 
855 1 -0.0111615 -0.132813 -0.0962121 0.164379 
404 1 -0.0538987 -0.0720716 -0.0066936 0.0902452 
2869 1 -0.159847 -0.237924 -0.0864227 0.299379 
3476 2 -0.0482776 -0.124024 -0.0937002 0.162765 
177 1 0.0921999 -0.129725 0.0817506 0.178921 
363 1 -0.062648 -0.119091 -0.10966 0.173587 
1450 1 -0.00698526 -0.0676608 -0.0951112 0.116931 
3559 2 -0.00850937 -0.0681859 0.111132 0.13066 
347 1 -0.150517 -0.192072 -0.0751287 0.255326 
319 1 -0.130687 -0.129287 0.0502687 0.190581 
4237 2 0.0177703 -0.0343712 -0.145469 0.150527 
830 1 -0.0395265 -0.0170003 -0.00923722 0.0440078 
937 1 0.00732496 0.00606438 0.0701888 0.0708301 
268 1 0.0409156 -0.0313325 0.17773 0.185051 
854 1 0.0294066 0.0530158 -0.0429338 0.0742882 
442 1 -0.107184 -0.136414 -0.0278932 0.175713 
501 1 -0.0203021 -0.133366 0.0917222 0.16313 
875 1 -0.00277919 -0.216151 0.104178 0.239962 
471 1 -0.0824397 0.262045 -0.323364 0.424298 
314 1 -0.0878594 -0.0998225 0.0336877 0.137181 
3070 1 0.139814 0.0852465 0.0261883 0.165834 
899 1 -0.0225645 -0.071276 -0.0835825 0.11214 
474 1 -0.0824754 0.111287 -0.0436001 0.145217 
964 1 -0.0883288 -0.0106794 0.0100081 0.0895331 
793 1 -0.0182317 -0.0867497 0.1046 0.13711 
3397 1 0.0107838 -0.204633 -0.127625 0.24141 
822 1 0.0898042 -0.100958 0.10153 0.169014 
3278 1 0.073845 -0.173315 -0.100736 0.213632 
1337 1 0.106089 -0.244954 0.101318 0.285522 
3544 2 0.0979982 0.145433 0.135181 0.221423 
1430 1 -0.0153592 -0.239993 0.0964026 0.259087 
3200 1 0.0460046 -0.00207568 0.105773 0.115363 
757 1 -0.125876 -0.0953764 0.117639 0.196928 
329 1 -0.139363 0.0192277 -0.0451269 0.147744 
349 1 0.00354856 -0.122955 -0.0588643 0.136365 
85 1 0.0934561 0.00267708 0.202971 0.223469 
3240 1 -0.0515658 -0.0778137 0.188422 0.210278 
113 1 0.034088 0.00972158 0.0633622 0.0726035 
504 1 -0.135802 -0.0981286 0.29061 0.335448 
781 1 0.0832041 -0.226564 0.0295612 0.243162 
1289 1 -0.0652907 -0.0273703 0.157924 0.173067 
2795 1 -0.101988 -0.0902171 0.159168 0.209464 
491 1 -0.0982837 0.0313851 0.000563564 0.103175 
581 1 -0.0713871 -0.154436 0.105658 0.200275 
3541 2 -0.0817616 -0.0115103 0.0730682 0.110256 
786 1 0.0390474 -0.136865 0.0820992 0.164307 
800 1 0.0103927 -0.249401 0.00931599 0.249791 
367 1 0.0251563 -0.121731 0.0765358 0.145976 
2687 1 0.0277064 -0.0983033 -0.00611394 0.102316 
3545 2 0.05418 -0.0360391 -0.0415544 0.0772079 
31 1 -0.0220221 -0.06007 -0.0123241 0.0651557 
3192 1 0.17477 -0.0495697 -0.184997 0.259279 
4028 2 -0.148612 0.0181835 0.23415 0.277925 
3434 1 0.0715761 -0.0310768 -0.174339 0.191006 
2814 1 0.037549 -0.0157985 -0.120693 0.127383 
1723 1 -0.113267 -0.139506 -0.0432876 0.184838 
3264 1 -0.0408286 -0.248614 0.0967183 0.269871 
440 1 -0.0730423 -0.147831 0.0941751 0.18989 
483 1 -0.0735824 -0.0921226 -0.0783533 0.141563 
819 1 -0.052988 -0.230597 0.136579 0.273197 
431 1 0.0093624 0.0796498 0.0379709 0.088733 
968 1 0.126002 -0.103368 0.0723583 0.178317 
421 1 -0.266317 -0.0982744 0.0506462 0.288353 
801 1 -0.117653 -0.26052 -0.064025 0.292937 
2656 1 -0.109256 -0.127419 0.102795 0.196823 
3339 1 0.120614 0.0298829 0.0373219 0.129744 
461 1 0.0222176 0.0854144 -0.0254041 0.0918401 
4152 2 -0.136515 0.022931 0.067909 0.154188 
307 1 -0.122872 -4.84426e-07 0.099434 0.158065 
699 1 -0.0275423 0.147275 0.0973096 0.178655 
2884 1 0.0436662 -0.0423051 -0.0871225 0.106239 
3436 1 -0.0530994 -0.158895 -0.064291 0.179445 
208 1 -0.0579715 -0.0773396 -0.155127 0.182775 
486 1 0.0684746 0.0734867 0.0786677 0.127584 
3371 1 -0.0113483 0.169347 -0.0892987 0.191785 
840 1 0.0274642 -0.0444766 -0.185509 0.192733 
4098 2 0.00533919 -0.277655 0.454964 0.533023 
3378 1 0.0263268 0.179142 0.149134 0.234576 
4143 2 -0.125129 -0.0984195 -0.00148309 0.159204 
3312 1 -0.00435205 -0.0634362 -0.066027 0.0916661 
308 1 0.0132884 -0.079829 -0.0681888 0.105825 
22 1 0.093581 -0.0572191 -0.083634 0.137935 
3482 2 0.0448239 -0.0500238 -0.183563 0.195466 
3493 2 0.288948 -0.12735 0.270244 0.41562 
3678 2 -0.228605 0.0600866 0.137224 0.273315 
419 1 0.268076 -0.409966 0.611303 0.783344 
128 1 -0.0229921 0.0764253 0.18255 0.199234 
907 1 -0.0591256 -0.146996 0.0471641 0.165312 
1641 1 -0.0890379 0.0498183 -0.0382877 0.108975 
1544 1 0.093938 -0.0498514 -0.0835376 0.135233 
3503 2 -0.0765029 0.116807 0.125909 0.188015 
1612 1 0.012629 0.0879296 0.0684001 0.112115 
865 1 0.00478758 -0.00844384 0.0865847 0.0871271 
1535 1 0.0356014 -0.00690743 -0.0273849 0.0454435 
573 1 0.0417428 0.0734268 0.0477498 0.0970258 
3844 2 -0.00587475 -0.0569015 -0.0791878 0.0976883 
631 1 0.0513385 0.0523094 -0.000379098 0.0732943 
3600 2 0.115464 0.0283477 -0.0073746 0.119121 
606 1 -0.0377401 0.000618584 0.168978 0.173143 
574 1 -0.199749 -0.121844 -0.0102676 0.234203 
1516 1 0.0340911 -0.0291386 0.137865 0.144976 
891 1 -0.0687037 -0.12177 0.00763607 0.140023 
1569 1 -0.093404 -0.143578 -0.135238 0.218239 
63 1 0.0704554 -0.00972374 0.04461 0.0839558 
577 1 -0.0371399 0.0671132 0.0399545 0.0864865 