ITEM: TIMESTEP
4800
ITEM: NUMBER OF ATOMS
4320
ITEM: BOX BOUNDS pp pp pp
0.0000000000000000e+00 1.9309999999999999e+01
0.0000000000000000e+00 1.9309999999999999e+01
0.0000000000000000e+00 9.6549999999999994e+00
ITEM: ATOMS id type c_displacement[1] c_displacement[2] c_displacement[3] c_displacement[4] 
3196 1 -0.0848255 0.0629714 -0.0743653 0.129193 
381 1 0.0168206 0.0651086 0.0949333 0.116337 
327 1 -0.0454939 0.0756622 -0.00541876 0.0884524 
484 1 -0.0113966 0.112793 -0.0114678 0.113945 
728 1 -0.0504616 0.150796 0.0203958 0.160318 
817 1 0.263335 -0.00913974 0.0772128 0.274574 
3346 1 0.182353 0.146247 0.00143565 0.233758 
3808 2 -0.0940671 -0.0844063 -0.141963 0.19007 
2945 1 0.165489 0.127765 0.0436738 0.213583 
3230 1 0.208812 0.099043 -0.00601781 0.231188 
3651 2 -5.43797e-05 0.087573 0.00605088 0.0877818 
66 1 -0.0109932 0.0716214 -0.147823 0.164627 
400 1 0.0330939 -0.0617332 0.05065 0.0864385 
677 1 3.75659e-05 0.0460537 0.077647 0.0902774 
3199 1 0.153842 0.0962764 -0.0551319 0.189673 
65 1 0.0711992 0.0427816 -0.0515447 0.0977571 
727 1 0.0082356 -0.0145967 -0.15365 0.154562 
87 1 0.0786192 0.116323 0.0172478 0.141455 
3393 1 -0.152014 -0.116148 -0.0241421 0.192825 
688 1 0.0555491 0.193139 0.0490118 0.206859 
58 1 -0.086273 -0.00280435 -0.143659 0.167597 
3514 2 -0.0851737 0.0316176 -0.200552 0.220172 
4289 2 0.0582815 0.0391877 0.0768136 0.10408 
110 1 0.0149425 -0.17792 -0.0350891 0.181961 
221 1 0.0369438 0.0433859 -0.0456683 0.0730258 
18 1 0.215538 0.100707 0.0137604 0.238302 
298 1 -0.0935352 0.0111179 -0.0827587 0.125385 
190 1 -0.117389 0.0517459 -0.229323 0.262767 
180 1 0.0561087 0.0338969 0.0203458 0.0686377 
106 1 -0.236662 0.0267515 -0.0610754 0.245875 
217 1 -0.0349996 -0.00390005 0.0229488 0.0420337 
775 1 0.042988 0.088604 -0.0970556 0.138269 
3627 2 -0.0138524 0.244457 -0.00874418 0.245006 
233 1 0.125855 0.224813 0.129268 0.288254 
3611 2 0.197462 -0.0297696 0.114213 0.230048 
2461 1 0.1089 0.0907348 0.0107504 0.142154 
3118 1 0.00129468 0.0823854 -0.070797 0.108634 
562 1 0.00132488 0.0188252 -0.0789124 0.0811376 
70 1 0.0218942 0.121157 -0.00955424 0.12349 
121 1 0.0864147 0.116908 -0.00962826 0.145697 
1118 1 -0.0575066 -0.154934 -0.172598 0.238959 
210 1 0.0738415 -0.0309668 0.15373 0.173333 
4214 2 0.184161 0.0275881 -0.00396103 0.186258 
3251 1 -0.0394251 -0.0246572 -0.191466 0.197032 
232 1 -0.234268 0.098046 0.0548214 0.259808 
3712 2 0.0213496 0.0342667 -0.102926 0.110561 
226 1 0.277244 -0.0175813 0.203357 0.344278 
532 1 -0.0363477 -0.06979 0.0800584 0.112255 
3578 2 -0.0568018 -0.0672989 0.0490247 0.100792 
473 1 0.00126554 -0.113382 -0.183027 0.215305 
246 1 -0.0656461 0.0756738 0.0244189 0.103113 
103 1 -0.152439 0.177779 -0.197577 0.306398 
4071 2 0.33444 0.295977 0.371362 0.580829 
2838 1 -0.145069 0.0234536 -0.0149887 0.147715 
536 1 -0.0150673 0.17627 -0.156165 0.235977 
894 1 -0.063606 0.110926 -0.11283 0.170531 
289 1 0.141748 0.0683358 0.176203 0.236241 
351 1 0.116805 0.2016 0.0686714 0.242902 
3135 1 0.0191 -0.0411149 0.0381177 0.0592301 
303 1 0.124069 -0.111653 -0.086526 0.188006 
1415 1 0.124505 0.115791 -0.0267267 0.172114 
527 1 -0.126417 -0.0137054 0.0852169 0.153072 
3002 1 0.0360233 0.206825 -0.0470784 0.215153 
3189 1 0.177666 0.0759194 0.115587 0.225143 
712 1 0.00694856 -0.102849 -0.0803353 0.13069 
718 1 -0.0704412 0.0155747 0.149256 0.165777 
3469 2 0.233424 0.0631936 0.0902356 0.258113 
623 1 0.10359 0.114508 -0.0721059 0.170418 
4177 2 0.157535 -0.423665 0.124689 0.468889 
93 1 -0.0708701 0.224608 0.0715639 0.246156 
569 1 0.0216234 0.0603004 -0.0643405 0.0907932 
639 1 -0.287629 0.193603 0.0984152 0.360414 
21 1 -0.224913 0.07646 0.0640385 0.246034 
3353 1 -0.143684 -0.143608 -0.144074 0.249049 
96 1 0.0367276 0.117733 -0.117049 0.170031 
823 1 -0.00261837 0.136759 0.0498549 0.145587 
2596 1 -0.0867593 -0.149694 0.0310073 0.175775 
50 1 -0.0977596 -0.0908519 0.0836788 0.157522 
2495 1 -0.00923044 0.170517 0.169794 0.240814 
28 1 -0.0256599 0.0726477 -0.0597798 0.0975179 
3055 1 0.0278852 0.0027289 0.0167705 0.032654 
12 1 0.0863284 0.0837475 -0.0069439 0.120476 
4170 2 -0.212593 0.0533937 0.0534806 0.225625 
738 1 -0.0922018 -0.00762418 -0.0365966 0.0994918 
2453 1 -0.091692 0.109054 0.182978 0.231908 
3167 1 0.0252666 -0.0170684 0.0589106 0.066334 
339 1 -0.0638949 0.127556 0.0723529 0.159963 
988 1 -0.0968465 0.144722 -0.0899859 0.196013 
424 1 0.024986 0.131571 0.0538652 0.144349 
608 1 -0.0655899 0.0484874 0.0429344 0.0921761 
390 1 0.140596 0.058598 0.185397 0.239944 
203 1 0.0660394 0.00646151 0.157381 0.170797 
3582 2 -0.0659663 0.297436 -0.0459732 0.308112 
3632 2 0.0553994 0.150398 -0.190241 0.248757 
231 1 0.053224 -0.0295304 0.0733006 0.0952776 
323 1 0.0704556 0.12144 0.0518419 0.149663 
3244 1 0.0417111 0.0935896 -0.00154148 0.102475 
118 1 0.118173 -0.0084563 0.0648142 0.135045 
2960 1 -0.101139 -0.136524 -0.0830537 0.189119 
3618 2 0.00198068 0.119132 -0.0420315 0.126344 
2735 1 -0.109331 -0.191619 -0.0813677 0.235142 
2768 1 -0.00539126 0.11278 -0.155334 0.192034 
29 1 0.0121668 0.193177 -0.174916 0.260886 
753 1 0.0124605 -0.100541 0.0578629 0.116669 
3467 2 -0.190195 0.0764546 -0.00985934 0.205223 
3679 2 -0.223734 0.0868157 -0.00331064 0.24001 
3916 2 -0.178135 -0.0983162 -0.0612537 0.212486 
4228 2 0.0865472 0.153879 -0.127567 0.217813 
4187 2 0.0432937 -0.282078 -0.522757 0.595582 
437 1 0.178825 0.0194562 -0.199994 0.268988 
53 1 0.253712 0.100142 -0.213851 0.346598 
593 1 -0.125591 0.0792491 0.153691 0.213716 
609 1 0.231711 0.126438 -0.224224 0.346343 
3040 1 -0.111006 0.163923 -0.101522 0.222486 
3460 2 0.0735353 -0.125368 0.0345745 0.149399 
167 1 -0.166795 0.145063 0.101112 0.24308 
725 1 -0.058201 0.129197 -0.00376128 0.141751 
610 1 0.120028 0.107012 0.0686339 0.174839 
89 1 -0.0546564 0.0451676 -0.0679773 0.098226 
3149 1 0.0299729 0.0926151 0.256088 0.273965 
550 1 -0.0637173 -0.0611598 0.143612 0.168597 
147 1 -0.0317861 0.0729957 0.146248 0.166515 
247 1 0.00213424 0.142479 0.213437 0.256632 
3006 1 0.128185 0.064051 0.205674 0.25067 
3554 2 -0.0599984 0.00199655 0.0433733 0.074061 
3786 2 -0.232164 0.157945 0.089509 0.294717 
5 1 -0.0252043 0.0962591 0.126379 0.16085 
2591 1 0.00156393 0.163991 0.0500019 0.171452 
3232 1 0.00663863 0.0735203 -0.0718067 0.102983 
1215 1 0.20175 0.129857 0.0159399 0.240458 
859 1 0.11488 0.0740863 0.0428228 0.143248 
3152 1 -0.0813022 0.018539 0.104194 0.133455 
2936 1 -0.0983648 0.172856 -0.0313186 0.201335 
3478 2 0.177605 0.04966 0.0692 0.196973 
3730 2 0.0871739 0.0191724 -0.0966396 0.131553 
553 1 -0.049976 0.0829223 -0.39973 0.411288 
43 1 0.00494816 0.0622912 0.043982 0.0764139 
4053 2 0.115061 0.0479075 0.141948 0.1889 
23 1 0.000834133 0.146219 -0.0437232 0.152618 
3743 2 -0.0200935 0.158931 0.00881073 0.160439 
3023 1 0.0944366 0.196655 -0.0232984 0.219396 
151 1 -0.0287003 -0.040967 0.145903 0.154239 
197 1 -0.149705 0.112582 -0.168607 0.252021 
1178 1 0.0289591 0.0784521 0.0161691 0.0851751 
2500 1 0.0431232 -0.00415196 -0.0760638 0.087536 
3188 1 0.135824 0.236098 -0.00114004 0.272382 
2931 1 -0.00138464 -0.0960011 0.266231 0.283014 
529 1 -0.208287 -0.296309 -0.137234 0.387319 
825 1 0.0952735 0.106679 0.0595853 0.154945 
691 1 -0.0682148 -0.467701 -0.0688101 0.477632 
3464 2 -0.293119 -0.6582 0.193643 0.746085 
140 1 -0.148415 -0.181104 0.17672 0.293353 
2934 1 0.054325 0.0398735 -0.0540518 0.0863869 
3491 2 -0.271137 0.345155 -0.460699 0.63631 
1480 1 -0.245496 -0.467435 0.237915 0.579109 
2968 1 0.160879 -0.222054 0.0970832 0.290886 
98 1 0.215593 -0.290597 0.127279 0.383572 
40 1 0.0145756 -0.00420088 -0.0368196 0.0398218 
78 1 0.202891 0.0581039 0.00109841 0.21105 
133 1 0.0713805 -0.0939661 0.00334965 0.118051 
237 1 0.0136436 -0.0199271 -0.102078 0.104895 
1331 1 -0.32517 -0.133688 0.348996 0.495385 
354 1 0.0771595 -0.0403105 -0.0464153 0.0986555 
1130 1 -0.0171315 -0.094412 -0.0180313 0.0976332 
3041 1 -0.0640399 -0.305229 -0.178252 0.35922 
604 1 -0.0709363 -0.0527955 0.112727 0.143271 
721 1 -0.29881 -0.0765706 -0.175458 0.354875 
3164 1 0.108405 0.177467 0.102285 0.231751 
2994 1 -0.0653642 -0.0781189 0.055274 0.115889 
446 1 -0.0135732 -0.0193907 0.1449 0.146821 
64 1 0.0954924 -0.119051 -0.19462 0.247323 
193 1 0.153507 -0.0311941 -0.128995 0.202922 
44 1 0.179361 0.0543077 0.0119649 0.187784 
2996 1 0.147323 0.0339375 -0.164424 0.223363 
4212 2 -0.125559 0.127653 0.0173661 0.179894 
3279 1 0.0277534 -0.157238 -0.00177201 0.159678 
178 1 0.0776962 0.126823 -0.0386811 0.153678 
257 1 -0.0257557 0.0410717 0.0212806 0.0529444 
920 1 -0.0837144 0.0303898 -0.0675202 0.111761 
1133 1 0.20204 -0.0933842 0.0218899 0.223652 
330 1 0.0635492 -0.0194869 0.0309382 0.0733172 
949 1 -0.0699588 0.12647 -0.0165387 0.145473 
600 1 -0.198115 -0.0164908 -0.0907111 0.218518 
338 1 -0.144407 -0.144017 -0.0310509 0.206297 
4101 2 -0.0373532 -0.0534969 -0.0700239 0.0957107 
1179 1 0.139263 0.113463 -0.103726 0.20743 
4217 2 -0.0540558 0.116724 0.104008 0.165422 
479 1 -0.0573655 0.0388782 0.114548 0.133879 
3335 1 0.0401019 -0.0630411 0.101275 0.125853 
1457 1 0.117103 0.0135471 0.00249259 0.11791 
3037 1 0.130196 0.157268 -0.0248998 0.20568 
4253 2 0.17879 0.0702801 -0.105591 0.219214 
387 1 0.132489 0.00205109 0.0177396 0.133687 
3736 2 -0.0877328 0.335783 0.00123247 0.347057 
717 1 -0.0113984 -0.235022 0.298476 0.380069 
174 1 -0.00605887 -0.177961 -0.0102541 0.178359 
508 1 -0.125765 -0.207487 -0.0882325 0.258172 
3537 2 0.177621 -0.0431699 0.0599144 0.192361 
747 1 -0.0501409 0.0783996 0.0325472 0.0985897 
497 1 0.0596715 -0.135123 0.0350687 0.151818 
958 1 -0.0188193 -0.171966 0.108283 0.204087 
3130 1 0.0137578 -0.104693 -0.110568 0.15289 
4163 2 0.00321448 -0.0344683 -0.146659 0.150689 
3394 1 -0.0118967 -0.15468 0.0745455 0.172118 
4204 2 0.0309009 -0.290874 0.114772 0.314221 
86 1 0.370307 0.047817 -0.195664 0.421543 
759 1 0.126857 -0.0509897 -0.0511238 0.145967 
3411 1 -0.0629196 -0.0181455 0.158789 0.171761 
835 1 -0.185405 0.0960978 0.0868451 0.226168 
3057 1 0.359802 0.135553 -0.0284326 0.385539 
3620 2 -0.200963 0.472145 0.0772646 0.518919 
216 1 -0.14377 -0.196536 0.0951535 0.261439 
241 1 -0.122809 -0.0207084 -0.000121012 0.124543 
704 1 0.228939 0.215978 -0.137456 0.343444 
3599 2 -0.0931144 0.24843 -2.14706e-05 0.265307 
157 1 0.105463 0.218746 0.0114152 0.24311 
54 1 0.0973501 -0.126297 -0.0811107 0.178905 
493 1 0.106061 0.138369 -0.0558622 0.183072 
204 1 -0.0721189 0.0394516 -0.113063 0.139789 
254 1 -0.0179418 0.200636 -0.0213167 0.202562 
67 1 0.105808 -0.0901575 -0.131574 0.191404 
2988 1 -0.0213532 0.152165 -0.179802 0.236514 
3030 1 -0.186937 0.161437 -0.177028 0.303885 
4050 2 0.164118 0.270025 -0.0964084 0.330368 
540 1 -0.136204 0.242723 -0.133972 0.308892 
3007 1 -0.0247511 0.0616689 0.115032 0.132846 
3479 2 0.0881185 0.560496 -0.0733512 0.572102 
3216 1 -0.0491959 0.142996 -0.0670247 0.16541 
234 1 0.0357864 -0.00686275 -0.0842019 0.0917481 
1036 1 0.08401 -0.0150709 0.0311849 0.0908697 
3369 1 -0.0185053 0.00668096 0.00948627 0.0218419 
3607 2 -0.0401137 0.0152349 0.0256621 0.0499975 
3139 1 0.0954334 0.0633794 -0.062187 0.130352 
644 1 -0.138013 -0.000621047 -0.0868893 0.163088 
1278 1 0.132491 0.127848 -0.051742 0.191249 
4269 2 0.00606725 0.0869307 0.0128539 0.0880851 
563 1 -0.131542 0.208725 -0.176738 0.303489 
214 1 0.080726 -0.00813373 -0.0144643 0.082414 
640 1 -0.0451357 0.0438504 0.0410648 0.0751425 
199 1 0.00535061 0.102576 -0.0452018 0.112222 
245 1 0.0285274 -0.0677931 0.103613 0.127065 
2758 1 -0.0764011 -0.0673639 -0.0444122 0.111119 
3056 1 -0.0526306 -0.0362856 0.0802983 0.102637 
3468 2 -0.150296 0.0911541 0.131825 0.219718 
4089 2 0.177069 0.151762 0.067352 0.242737 
2684 1 -0.151523 0.0710351 -0.160788 0.232074 
559 1 0.0191621 0.105882 -0.137394 0.174515 
3096 1 -0.0688762 0.0404759 0.0540748 0.0964692 
240 1 0.0583976 0.0639462 -0.0358479 0.0937255 
181 1 -0.0901379 -0.202223 -0.0106852 0.22166 
46 1 -0.038119 -0.238778 -0.0152592 0.242282 
3211 1 -0.1261 0.0933053 0.0783581 0.175348 
3603 2 -0.0352187 -0.429301 0.265965 0.506239 
2939 1 -0.156086 0.0159527 -0.0859758 0.178911 
1102 1 0.122389 0.420031 -0.393974 0.588745 
3701 2 0.251489 -0.0966723 -0.00580307 0.269492 
3513 2 -0.137511 -0.245381 -0.112703 0.303023 
312 1 0.240345 -0.00268385 -0.1225 0.269776 
587 1 -0.0677226 0.0294712 0.0759343 0.105929 
135 1 -0.0749432 -0.0600078 -0.0815428 0.125963 
3512 2 -0.0364631 -0.00120883 0.0453384 0.0581944 
2981 1 0.0255754 -0.0176284 0.00101092 0.0310787 
1149 1 0.134763 -0.0240607 0.231996 0.269374 
134 1 -0.0922649 0.098879 0.0886148 0.161686 
195 1 -0.0264661 0.0302472 -0.0250177 0.0473416 
2995 1 -0.117921 -0.229714 -0.170567 0.309462 
3493 2 0.337761 -0.0367305 0.427964 0.546429 
191 1 0.0386115 0.130491 0.005838 0.136209 
685 1 -0.0089906 0.0940028 -0.147638 0.175255 
602 1 -0.177654 0.123007 -0.0457717 0.220878 
3092 1 -0.0442028 0.0398186 0.0285129 0.0659727 
4195 2 -0.0975151 -0.029214 -0.1418 0.174556 
674 1 0.0473625 0.0705429 -0.0178226 0.0868167 
2004 1 -0.170968 -0.0499284 -0.181957 0.254619 
182 1 0.0154032 -0.0210781 -0.0961362 0.0996178 
427 1 -0.114468 0.0126388 -0.225835 0.253504 
4173 2 -0.110227 0.182573 -0.145571 0.258213 
2950 1 -0.150798 -0.0769853 -0.121963 0.208667 
6 1 -0.241615 0.11546 -0.136063 0.30037 
902 1 -0.0358263 0.0154138 -0.0405107 0.0562337 
3608 2 -0.0649041 0.0884347 0.0620019 0.126006 
215 1 -0.11005 0.0268348 -0.073148 0.134839 
3115 1 -0.164896 0.204355 -0.0357648 0.265011 
690 1 -0.12016 0.0173419 -0.107325 0.162043 
742 1 -0.118589 0.0159218 -0.153294 0.194464 
154 1 -0.0389577 0.0677169 -0.0917989 0.120542 
2926 1 -0.108749 -0.0660576 0.0295909 0.130635 
710 1 -0.0801981 -0.0884395 -0.217048 0.247716 
580 1 -0.0477976 -0.0369922 0.249001 0.256231 
80 1 -0.155257 -0.0953404 0.0499187 0.188909 
95 1 -0.0123137 -0.021339 0.0827194 0.0863104 
2977 1 0.0229144 0.11856 0.0406148 0.127402 
3408 1 -0.0659511 0.166879 0.109998 0.21047 
3518 2 -0.104055 0.188158 0.0895284 0.232908 
143 1 0.0295016 0.108207 -0.0139327 0.113019 
3841 2 -0.0869026 -0.0136659 -0.0546471 0.103562 
3003 1 -0.0424553 -0.0289084 -0.0581264 0.0775682 
249 1 -0.169853 -0.121767 -0.00152635 0.208997 
205 1 -0.319927 0.0289247 -0.0619389 0.327149 
694 1 -0.114005 0.171384 0.0724456 0.218215 
861 1 -0.136609 -0.20757 0.0406024 0.251785 
3549 2 -0.121906 -0.0902202 -0.320127 0.354234 
3401 1 -0.030177 0.200711 0.0508705 0.209245 
1077 1 -0.0263055 -0.121371 0.0250365 0.126688 
3321 1 0.0230569 -0.102698 0.0260783 0.108437 
2628 1 0.185894 -0.0207169 0.0591547 0.196176 
3192 1 -0.013796 -0.111899 -0.000554239 0.112747 
4257 2 0.596078 0.318439 -0.0723633 0.679668 
512 1 0.26388 -0.00833702 -0.0162892 0.264513 
300 1 -0.0302451 0.108316 0.163185 0.198183 
393 1 0.0845769 -0.173341 -0.05295 0.20001 
2740 1 0.056385 -0.045273 0.037428 0.0814234 
286 1 -0.0979407 0.0135349 0.0349098 0.104854 
3197 1 -0.160816 -0.0324604 0.0829085 0.183819 
3341 1 -0.0893526 0.248705 0.025502 0.265496 
3392 1 0.00269422 0.131357 0.0297247 0.134705 
4116 2 0.042445 -0.0771809 -0.0248147 0.0915109 
4006 2 0.184493 0.268021 -0.0213241 0.32608 
277 1 -0.135769 -0.0344862 0.111163 0.178829 
364 1 -0.12354 0.160409 0.0887774 0.221076 
1367 1 -0.0472917 -0.045007 0.0600008 0.0886692 
411 1 -0.0355156 0.0314419 -0.015109 0.0497819 
356 1 0.1342 -0.0665301 -0.0397478 0.15497 
3404 1 -0.0459279 0.0131881 -0.0234818 0.0532418 
3434 1 -0.0212254 -0.155849 0.100939 0.18689 
3389 1 0.0796068 0.0212986 -0.0860707 0.11916 
357 1 0.014429 0.0542039 -0.163385 0.172745 
265 1 -0.0258913 -0.00513205 -0.187341 0.189192 
362 1 0.00239384 0.212436 0.11023 0.239343 
478 1 -0.0683467 0.0532895 -0.0117648 0.0874612 
4159 2 -0.0275504 0.0214434 -0.0619996 0.0711533 
2696 1 -0.0273864 0.108692 -0.161912 0.196925 
3612 2 0.109971 0.0881576 -0.112171 0.180132 
155 1 -0.296986 0.157669 -0.16081 0.372719 
3234 1 -0.175243 0.0682786 0.0292399 0.190334 
3380 1 0.112638 0.10792 0.0316741 0.159177 
780 1 0.00412453 0.204422 -0.0961217 0.225931 
2710 1 -0.0829314 0.144717 -0.0321012 0.169856 
3313 1 -0.0812646 0.133547 -0.0615778 0.16802 
3333 1 -0.0686845 0.0479431 0.0469024 0.0959996 
3281 1 0.111258 -0.0194007 0.0652913 0.130452 
2732 1 0.0779855 -0.110094 0.0233119 0.136916 
3526 2 -0.100609 0.00577461 0.0563158 0.115443 
903 1 -0.0843398 0.139593 -0.0446637 0.169099 
3303 1 -0.0846188 0.0986814 0.146854 0.196124 
3249 1 0.0247122 0.118771 -0.122642 0.172506 
92 1 -0.0850956 -0.037472 0.158927 0.184129 
3379 1 -0.0390976 0.0515348 0.0129011 0.0659613 
1449 1 -0.00276735 0.0580918 0.0537213 0.0791726 
3162 1 0.0407156 -0.0189556 -0.0404586 0.0604481 
462 1 -0.0750739 0.0215001 0.138362 0.158878 
2966 1 0.351276 0.195514 -0.0602978 0.406518 
3022 1 0.039916 0.0694621 -0.1375 0.159136 
750 1 -0.155124 -0.106722 -0.0784894 0.203994 
449 1 0.103972 0.0222316 -0.0998565 0.145862 
601 1 0.0733071 0.219402 -0.0426987 0.235232 
468 1 0.0945564 0.103228 0.128678 0.190144 
886 1 0.0785827 -0.179197 0.138761 0.239878 
287 1 0.0102578 -0.0943149 0.0484405 0.106522 
3647 2 -0.151747 0.209787 -0.0887419 0.273702 
2890 1 -0.110509 0.0792203 -0.104972 0.171777 
1285 1 -0.0666476 0.357603 0.0301937 0.365012 
3301 1 -0.136447 0.0696686 -0.0994582 0.182657 
3209 1 0.0148895 -0.123627 -0.131009 0.180745 
4318 2 -0.198264 0.169417 0.108116 0.282311 
2961 1 0.194027 0.0884585 -0.192672 0.287391 
943 1 -0.030753 0.111722 -0.0410595 0.122937 
100 1 -0.261497 0.0464961 -0.00290062 0.265614 
3883 2 0.265204 -0.0468226 -0.00846497 0.269439 
3227 1 0.116836 -0.0400938 0.0404672 0.129984 
373 1 0.219717 0.0500895 -0.0242682 0.226658 
4297 2 -0.105032 -0.0252474 -0.0236327 0.110579 
398 1 -0.0403209 0.0217636 -0.0486332 0.0668178 
3531 2 -0.021827 -0.00355288 0.0841153 0.0869737 
3221 1 -0.0716773 0.0622741 -0.184543 0.207537 
309 1 -0.120801 0.120873 -0.170624 0.241487 
836 1 -0.0527531 0.0184825 -0.0565705 0.0795281 
394 1 0.147016 0.040721 -0.0130944 0.153113 
412 1 -0.131884 0.118454 -0.0458669 0.183108 
3573 2 0.0505943 -0.0861706 -0.0264538 0.103368 
1212 1 -0.143179 0.0998713 0.011731 0.174963 
392 1 -0.0171783 0.0748049 -0.0301848 0.0824741 
3360 1 -0.011788 0.161353 -0.18354 0.244664 
901 1 -0.0784512 -0.0811749 -0.115718 0.161662 
3319 1 -0.123937 0.0834472 -0.00620228 0.14954 
3588 2 -0.0209549 0.040058 0.0142606 0.0474037 
2365 1 0.0547699 0.0771021 -0.122079 0.154427 
306 1 -0.036857 0.133172 -0.130876 0.19032 
3093 1 -0.0819186 0.0923396 -0.0506051 0.13341 
2745 1 0.0591631 0.0285 -0.100251 0.119845 
355 1 0.0378391 0.103633 -0.0219891 0.112495 
3097 1 0.00635035 0.144321 -0.0721389 0.161471 
228 1 -0.203442 0.0863459 0.00669506 0.221109 
3324 1 0.0782774 0.127162 -0.167355 0.224289 
951 1 0.00168307 0.147444 -0.0425619 0.153473 
2737 1 -0.221087 0.0259997 -0.0478331 0.227691 
2959 1 -0.0557422 0.0894689 -0.0845703 0.135144 
4284 2 -0.186304 -0.0284462 -0.0193325 0.189452 
4225 2 0.197391 -0.00379503 0.0133463 0.197878 
3483 2 0.0113592 0.120455 -0.111362 0.164438 
3180 1 0.0338124 0.0848786 0.0102488 0.0919385 
483 1 -0.0795237 -0.0369557 0.219618 0.236478 
3305 1 0.241568 0.00676646 -0.210528 0.320504 
2861 1 0.106978 -0.0344124 -0.0585617 0.12672 
3617 2 0.0726008 0.00824325 0.0614006 0.0954403 
716 1 0.256321 0.106376 -0.241242 0.367715 
160 1 -0.236516 0.0633348 0.020531 0.245708 
206 1 0.155891 0.0549069 -0.114184 0.200885 
71 1 0.17983 0.0209013 -0.0770269 0.196746 
4185 2 0.200994 -0.142792 -0.240113 0.344154 
3561 2 0.0711118 -0.0183032 -0.0880956 0.114685 
2479 1 -0.0746777 -0.0167122 0.0186449 0.0787634 
353 1 0.084556 0.0681346 -0.0340681 0.11381 
3094 1 0.158853 -0.0251521 0.069035 0.175022 
389 1 0.226498 -0.000876272 0.0402272 0.230045 
3676 2 0.2909 0.186761 -0.0474679 0.348935 
388 1 0.063881 0.0956907 0.105266 0.155944 
1313 1 0.234487 0.0872346 -0.122074 0.278381 
444 1 0.134034 0.083854 -0.0720539 0.173748 
3668 2 0.0867618 0.24756 -0.0693538 0.271336 
838 1 0.0945283 0.0910112 -0.00398983 0.13128 
460 1 0.202576 -0.114058 0.0292857 0.234316 
499 1 0.132636 0.0686603 -0.13847 0.203668 
3548 2 -0.522209 -0.309243 0.0338958 0.607851 
763 1 0.135818 0.216349 -0.0641306 0.263374 
966 1 0.0362789 0.119733 -0.00356796 0.125159 
291 1 0.175265 0.233126 -0.0695675 0.299842 
482 1 0.141858 0.0274847 -0.112963 0.183411 
1314 1 0.0430745 0.154851 -0.01506 0.161434 
3672 2 0.11237 0.234798 -0.0136185 0.260658 
375 1 0.0171447 0.0093087 -0.166838 0.167975 
94 1 0.229606 -0.124247 -0.0825408 0.273805 
37 1 -0.0205813 0.0786865 0.0780446 0.112721 
614 1 0.19882 0.0438734 -0.000609929 0.203605 
4309 2 -0.101408 0.0723319 -0.0854585 0.151059 
3482 2 -0.1728 -0.0725912 -0.0193632 0.188426 
3409 1 -0.100915 -0.126882 0.0902605 0.185552 
3257 1 0.128562 -0.140167 -0.0721884 0.203436 
436 1 0.005969 0.0371669 -0.0849259 0.0928947 
792 1 -0.141737 0.00309208 -0.028781 0.144662 
3293 1 -0.104925 0.107792 0.0450592 0.157031 
318 1 0.0702229 0.0376694 0.00098888 0.0796945 
3095 1 -0.124217 0.192235 -0.0619672 0.237116 
3150 1 -0.0555893 0.116115 0.092468 0.158503 
3320 1 0.0832606 -0.0335671 -0.0322393 0.0953858 
3350 1 0.0245579 -0.108869 0.0609453 0.127161 
3314 1 0.0771201 0.00376418 -0.209144 0.222942 
1324 1 -0.0109482 -0.0269334 0.047397 0.0556035 
626 1 0.046742 0.0458752 0.0243683 0.0698796 
3290 1 -0.0265396 0.00992913 -0.17582 0.178089 
3664 2 -0.0575273 0.170873 0.0126597 0.180741 
3658 2 0.0574143 0.114378 0.0713166 0.146509 
4014 2 -0.00437649 -0.107507 0.133016 0.171085 
4271 2 0.126452 0.180919 0.021807 0.221805 
1172 1 0.180198 0.0292934 0.0132584 0.183044 
652 1 0.253403 -0.0203612 -0.0506802 0.259223 
3568 2 0.0757566 0.00687661 0.0790479 0.109704 
3433 1 0.0598986 -0.0109113 0.0560032 0.082724 
3560 2 0.102234 -0.0457473 -0.0262211 0.115031 
917 1 -0.00136479 0.0943085 0.0382713 0.101787 
968 1 0.101415 -0.206961 -0.00888924 0.230645 
1354 1 -0.108007 -0.174168 0.124997 0.24005 
3419 1 -0.0154179 -0.00356523 0.0917886 0.0931427 
325 1 0.229954 0.0640042 -0.116091 0.265428 
292 1 0.0779316 -0.0400195 0.0141022 0.0887342 
3444 1 0.138819 -0.15145 -0.0386034 0.20904 
908 1 0.220577 -0.109589 -0.0460236 0.250564 
3504 2 0.305238 -0.162923 0.01825 0.346478 
423 1 0.260718 -0.0295652 0.00150106 0.262393 
502 1 0.123688 0.0609416 -0.0943447 0.167074 
3435 1 0.0341135 -0.0151961 0.0325682 0.0495514 
3378 1 0.0935291 0.247904 0.163215 0.311196 
439 1 0.248963 -0.0268229 0.0688732 0.259703 
4182 2 -0.164901 -0.219628 -0.139619 0.308094 
874 1 0.141227 -0.109639 0.146486 0.231137 
980 1 -0.00461877 -0.207533 0.116835 0.238205 
810 1 0.137657 -0.0538312 -0.00198594 0.147821 
225 1 -0.10749 -0.255885 0.00874938 0.277682 
3331 1 -0.0951615 -0.033078 -0.0455145 0.110551 
3266 1 0.0538767 0.0438145 -0.0204805 0.0724007 
4307 2 0.00433682 -0.0974799 -0.0883412 0.131626 
2869 1 -0.125209 -0.186247 -0.0925575 0.242759 
4280 2 0.0215162 -0.0215709 -0.0588931 0.0663072 
416 1 -0.048364 -0.211055 0.0879496 0.233706 
365 1 0.0531005 -0.179201 -0.0429771 0.191781 
3799 2 0.0230176 -0.151442 -0.0958803 0.180714 
2819 1 0.0458642 -0.171612 0.0538892 0.185629 
382 1 -0.0448274 0.0504603 -0.129672 0.146187 
295 1 -0.00315065 -0.121097 -0.0944986 0.153637 
404 1 -0.151973 0.0426221 -0.0535382 0.16667 
490 1 -0.0534597 -0.124411 -0.0484522 0.143818 
2776 1 -0.0430362 -0.0564603 0.00856891 0.0715074 
2973 1 -0.280552 0.0114135 0.201316 0.345497 
957 1 0.153485 -0.282521 -0.0536747 0.32597 
795 1 0.0969188 -0.106092 0.0994765 0.17477 
419 1 0.362711 -0.254395 0.321132 0.547176 
3070 1 -0.00314025 -0.0176517 0.144292 0.145401 
349 1 -0.0130474 -0.0919025 0.0214233 0.0952642 
4256 2 -0.447525 -0.842319 0.29656 0.998863 
402 1 -0.0149059 0.0522164 0.15461 0.163869 
107 1 -0.312894 -0.0403261 -0.0183378 0.316015 
4285 2 0.0342344 0.313621 -0.268685 0.414394 
496 1 0.165717 0.00414671 0.209637 0.267258 
2993 1 -0.221655 0.22215 0.0172829 0.314294 
517 1 0.280705 -0.232116 0.0526893 0.368034 
279 1 -0.0806588 0.175423 0.137131 0.23682 
4028 2 -0.171257 0.159247 0.0645074 0.24259 
3322 1 0.149836 0.156085 0.125665 0.250211 
3863 2 -0.164647 0.0679529 0.127463 0.219028 
274 1 -0.0403468 -0.0384932 0.0125055 0.0571488 
1091 1 0.00806068 0.0734458 0.171178 0.186443 
3396 1 0.0757496 -0.00541695 0.113585 0.136634 
329 1 -0.156405 0.159496 -0.0596102 0.231203 
3383 1 0.0271504 0.149988 0.0635574 0.165145 
187 1 -0.0777992 0.0143716 0.118352 0.142361 
2545 1 -0.0632132 -0.0456964 0.00828139 0.0784389 
3327 1 0.0201208 -0.073666 0.0295222 0.0818724 
3674 2 0.0889519 0.250725 0.101868 0.284873 
1418 1 0.134096 0.0335818 -0.0417632 0.144408 
443 1 -0.108342 -0.0583647 0.0977221 0.157143 
855 1 0.0605158 -0.150833 -0.0378557 0.166871 
22 1 -0.054991 -0.0156105 0.0772199 0.0960761 
3476 2 -0.0239656 -0.0571424 -0.09108 0.11016 
177 1 0.0205468 0.0617949 -0.0495725 0.0818426 
363 1 0.0292956 -0.178934 -0.074569 0.196051 
1450 1 -0.000740196 -0.0314257 -0.0586743 0.0665642 
3559 2 -0.0275491 0.102994 -0.0505067 0.117973 
347 1 -0.0995605 0.161825 0.136309 0.233837 
319 1 -0.0861683 -0.0806615 -0.0927223 0.150096 
4237 2 0.0163119 -0.0466063 -0.00439686 0.0495737 
875 1 0.0808568 -0.0522582 0.00263965 0.0963105 
248 1 0.156234 0.13418 -0.00786527 0.206095 
3291 1 0.146271 -0.223678 -0.085421 0.280577 
830 1 -0.0282901 -0.0938742 -0.0770386 0.12469 
937 1 0.025196 -0.0495286 -0.0676544 0.0875502 
268 1 0.127436 -0.00872855 0.0265756 0.13047 
854 1 0.0127575 -0.0120791 0.0270182 0.032228 
442 1 0.124016 -0.0100719 -0.166386 0.207764 
314 1 -0.147241 0.0241004 0.161561 0.219915 
501 1 0.0552669 0.0394198 -0.0816682 0.106198 
471 1 -0.081152 0.290374 -0.182524 0.352445 
899 1 0.00571201 -0.0584924 -0.0541212 0.0798943 
474 1 0.0506078 0.0289136 -0.175536 0.184959 
964 1 -0.177448 0.0492889 -0.0518396 0.191323 
793 1 0.00452775 -0.12348 0.00465648 0.123651 
3397 1 -0.0836138 -0.00728501 -0.0154177 0.0853349 
1289 1 -0.0223726 0.035513 0.127694 0.134415 
3312 1 0.0744363 -0.0566739 -0.0308335 0.0985059 
822 1 0.144718 0.0267058 0.191306 0.24136 
1337 1 0.187072 -0.188593 0.04783 0.269909 
3278 1 0.158998 -0.115428 -0.0965575 0.218924 
3544 2 0.104639 -0.214279 0.0190168 0.239221 
1430 1 -0.0112514 -0.205806 0.124218 0.240651 
3200 1 0.155827 0.00414765 0.19706 0.251261 
757 1 -0.055851 -0.114164 0.0479235 0.135829 
4264 2 0.150259 0.0119443 0.0141484 0.151396 
85 1 0.145731 -0.0584423 0.0910226 0.181489 
3240 1 -0.179083 -0.0254676 0.0820061 0.198606 
113 1 0.0716004 0.0161079 0.0509643 0.0893501 
504 1 -0.0623971 -0.00560961 0.193784 0.20366 
2795 1 -0.159502 0.0731626 0.198472 0.264924 
307 1 -0.109596 -0.0103214 -0.00678991 0.11029 
647 1 0.0427718 0.136031 0.171336 0.222912 
581 1 -0.0686415 0.0853991 0.0752803 0.132935 
3541 2 -0.0214052 0.0695828 -0.0511214 0.088957 
786 1 0.0615117 0.026907 0.0780531 0.102956 
800 1 0.00420594 -0.144685 -0.001308 0.144752 
367 1 0.099438 -0.0754055 0.00709308 0.124997 
2687 1 -0.0689928 -0.0399994 0.0325908 0.0861517 
3545 2 -0.0918881 -0.0134898 -0.135016 0.163874 
491 1 -0.0806341 0.0177637 -0.0392634 0.0914277 
4098 2 -0.141265 -0.288655 0.617885 0.696462 
2814 1 0.0244441 0.0514621 0.111477 0.125192 
1723 1 -0.0857306 0.0615233 0.106396 0.14985 
3264 1 -0.0512478 -0.104777 0.128941 0.173869 
440 1 -0.151705 0.0956317 0.097736 0.204236 
783 1 -0.314254 -0.0785677 -0.0699604 0.331396 
486 1 -0.109067 0.313084 0.128967 0.355738 
3371 1 -0.115417 0.055035 -0.0552042 0.139275 
4143 2 -0.0835502 -0.0568679 -0.00249245 0.101098 
4154 2 0.0968712 0.142148 -0.0678626 0.18492 
431 1 -0.0624241 -0.188664 0.050774 0.205107 
2873 1 -0.109825 0.0074141 0.121331 0.163822 
801 1 -0.127644 -0.360971 -0.0568383 0.38707 
2656 1 -0.0123882 0.0853122 -0.103075 0.134373 
421 1 -0.171531 -0.182118 -0.263838 0.363594 
781 1 -0.0357391 -0.29647 0.103089 0.31591 
461 1 -0.138248 0.14826 -0.0624963 0.21213 
3420 1 -0.01915 -0.161226 -0.0650318 0.174899 
3535 2 0.134192 0.0643651 0.0130355 0.1494 
2884 1 -0.0887428 -0.0827823 -0.0530905 0.132464 
840 1 -0.167068 -0.0500058 -0.142297 0.225079 
4152 2 -0.143875 0.134877 0.0323372 0.199844 
3436 1 -0.121862 -0.0138677 0.0450266 0.130652 
699 1 0.0740346 0.278989 0.0333012 0.29056 
1254 1 -0.0627711 0.162351 -0.0459457 0.180025 
430 1 -0.201026 -0.0831951 -0.0101048 0.217796 
3678 2 -0.179947 0.158505 0.110208 0.263914 
308 1 0.0216442 -0.0482953 -0.10661 0.119024 
3223 1 -0.274553 -0.0407755 -0.00486136 0.277607 
3339 1 -0.130657 -0.00572773 -0.0675689 0.147206 
3643 2 0.0515311 -0.481744 -0.10426 0.495584 
1304 1 0.188389 0.0303808 0.00559133 0.190905 
1442 1 0.0245 -0.0834084 -0.0370555 0.0945004 
771 1 -0.192819 0.147906 0.0787971 0.255469 
128 1 -0.0632442 0.0903418 0.117649 0.161254 
907 1 -0.0136009 -0.00356962 0.118116 0.11895 
1641 1 -0.0323035 0.102005 0.0145123 0.107977 
891 1 -0.125005 -0.0390027 0.122763 0.179494 
1300 1 0.0919626 -0.00419237 0.0855677 0.125684 
1934 1 0.198626 -0.0263268 0.0641642 0.210387 
522 1 0.0185276 0.256133 0.103172 0.276752 
1535 1 0.0712675 0.0214408 0.0461499 0.0875704 
573 1 -0.0962619 0.186259 0.0120283 0.210008 
3844 2 0.00831754 0.00162603 -0.189487 0.189677 
631 1 0.0276385 0.272898 -0.0585767 0.280479 
885 1 0.0288341 -0.0569591 -0.120078 0.135994 
1569 1 -0.0232882 -0.10063 -0.0651054 0.122096 
606 1 0.0869598 0.0343662 0.141963 0.16999 
3600 2 0.158486 0.210088 -0.160668 0.308332 
1093 1 -0.220871 -0.170579 0.108505 0.299423 
63 1 -0.0510074 0.201618 0.0132767 0.208393 
577 1 -0.0940013 0.155665 0.11977 0.217744 
565 1 -0.0234447 0.195463 0.115227 0.228107 
3616 2 0.13072 0.469233 -0.182721 0.520244 
3418 1 -0.123509 0.133744 -0.213373 0.280482 
4176 2 -0.0813673 0.209716 0.114688 0.252497 
69 1 -0.122951 0.268573 0.122451 0.319754 
657 1 -0.143051 -0.0887569 -0.00474713 0.168416 
804 1 0.0808128 -0.0207418 0.0126303 0.0843828 
172 1 -0.120057 0.0859799 -0.0176136 0.148716 
4319 2 -0.0174295 0.174259 -0.00809533 0.175316 
655 1 -0.132167 0.234107 0.0907754 0.28375 
1053 1 -0.0549936 0.143112 0.105171 0.18592 
621 1 -0.138866 0.156596 -0.282038 0.351214 
397 1 -0.0628916 0.110689 0.141712 0.190498 