ITEM: TIMESTEP
48
ITEM: NUMBER OF ATOMS
4320
ITEM: BOX BOUNDS pp pp pp
0.0000000000000000e+00 1.9309999999999999e+01
0.0000000000000000e+00 1.9309999999999999e+01
0.0000000000000000e+00 9.6549999999999994e+00
ITEM: ATOMS id type c_displacement[1] c_displacement[2] c_displacement[3] c_displacement[4] 
3196 1 0.016094 -0.0717891 0.0461712 0.0868589 
381 1 0.0376928 0.0683252 -0.052055 0.0938019 
327 1 -0.00703682 0.00868629 -0.0789772 0.0797645 
484 1 -0.00805508 0.0668678 0.0366811 0.0766922 
728 1 -0.0263161 0.149056 -0.150834 0.213685 
817 1 0.160303 0.000630799 0.0579071 0.170443 
3586 2 0.0749073 -0.0431745 0.0587725 0.104544 
3460 2 0.069704 0.121674 -0.0326038 0.143966 
3679 2 -0.0319074 0.0034925 0.142673 0.146239 
2945 1 -0.0572139 -0.0155297 -0.13095 0.143745 
3230 1 0.0536073 0.0644397 -0.065675 0.106487 
3651 2 0.0348823 -0.00421462 0.0347438 0.0494132 
66 1 0.106946 0.0984084 -0.0106996 0.145726 
400 1 -0.0787293 -0.0179045 -0.0893765 0.120445 
677 1 0.0330747 0.0357337 0.0962508 0.107866 
623 1 0.0363236 0.0636091 0.05017 0.0887837 
87 1 0.0699386 -0.00631237 -0.0172419 0.0723086 
3006 1 0.0628066 -0.0631119 0.130275 0.157795 
3877 2 0.0805392 0.0641494 -0.0738023 0.126683 
727 1 0.0853538 0.00876725 -0.0288339 0.0905181 
688 1 0.0519487 -0.00413781 0.00305229 0.0522025 
58 1 0.0886101 -0.0431491 -0.0549183 0.112826 
3514 2 -0.057156 -0.0133794 -0.0352677 0.0684809 
18 1 0.0775496 -0.0328996 -0.04567 0.0958231 
3618 2 -0.0232486 0.0204629 0.0999589 0.104647 
190 1 0.069809 0.087853 -0.101555 0.151344 
298 1 -0.0290576 -0.12017 -0.069207 0.141685 
559 1 0.0726885 0.0140034 -0.031159 0.0803156 
215 1 0.0283095 -0.0231447 0.0231741 0.0432914 
180 1 0.0749701 0.0265358 0.0238636 0.0830309 
106 1 -0.0465712 0.0422223 -0.0704315 0.0944044 
217 1 -0.024285 0.0202831 0.0624982 0.0700514 
775 1 -0.0825926 -0.0332133 -0.101237 0.13481 
3627 2 0.0602872 0.0296999 -0.0228376 0.0709802 
608 1 0.189592 0.0412586 0.0464386 0.19951 
3118 1 -0.0464619 0.0279838 -0.0508103 0.0743202 
562 1 -0.114299 0.0163773 -0.0454811 0.124101 
70 1 0.010073 -0.00459835 0.0825415 0.0832809 
121 1 -0.00960096 -0.0554181 0.0290041 0.0632818 
1118 1 0.000347454 0.0361865 0.0724693 0.0810024 
210 1 0.0188284 -0.0168852 0.113007 0.115803 
232 1 0.0059641 0.0117282 -0.0735628 0.0747302 
4214 2 0.00132188 0.126545 0.0564957 0.13859 
3712 2 -0.0294278 -0.0179295 -0.0503143 0.0609835 
65 1 -0.0559386 -0.0709426 -0.0373956 0.0977773 
226 1 0.0343877 -0.0524749 0.0637317 0.0894307 
532 1 0.0363008 0.00967213 0.10749 0.113865 
3578 2 -0.017284 -0.0563447 -0.0614447 0.0851406 
473 1 0.0701101 -0.0591609 -0.0421619 0.100961 
246 1 0.0447359 -0.0299999 0.0370185 0.065358 
221 1 -0.0413679 -0.0118519 0.0271479 0.0508801 
4034 2 0.0376957 -0.0389258 0.0563998 0.078212 
4071 2 0.0735602 -0.0597498 0.0769757 0.122092 
2838 1 0.0470434 0.0581788 0.0429699 0.0862802 
536 1 0.0574511 0.0985064 0.121695 0.166775 
894 1 0.0815116 -0.0735229 0.031998 0.11434 
289 1 -0.0453237 -0.0240067 0.0441887 0.0676993 
351 1 0.0751493 0.0725613 0.0230255 0.106971 
197 1 0.00351124 -0.071122 -0.079142 0.106462 
3135 1 -0.125533 0.0165427 0.0276409 0.1296 
303 1 -0.0335865 0.0237581 0.0415212 0.0584509 
1415 1 0.0720919 -0.110514 -0.0120952 0.132502 
527 1 0.0253645 -0.0313803 0.00561074 0.0407377 
3002 1 -0.0430292 0.0523871 0.103689 0.123884 
3189 1 -0.00757005 -0.141683 -0.0168559 0.142883 
712 1 -0.0364012 -0.0693219 0.01027 0.0789686 
718 1 0.0549916 -0.0820739 0.0499298 0.110694 
3469 2 0.0406308 -0.043031 0.00967871 0.0599684 
110 1 0.0736763 -0.0449368 -0.0333178 0.0925072 
4177 2 -0.0614971 -0.0703702 0.0835133 0.125333 
93 1 -0.0219827 -0.0717294 0.0823805 0.111422 
569 1 0.0275071 -0.0231191 -0.107916 0.11374 
639 1 0.0208225 -0.0588178 0.0280507 0.0684102 
21 1 -0.0150376 -0.0802295 0.083867 0.117032 
96 1 0.0577949 0.0737062 -0.0594272 0.110925 
167 1 0.0502838 0.0374767 0.0367641 0.0726951 
1178 1 0.0380283 0.0545433 -0.0845689 0.107578 
3353 1 -0.0155073 -0.0903177 -0.00841857 0.0920251 
823 1 0.0238075 -0.00411998 -0.0386877 0.0456126 
2596 1 -0.00992701 -0.0820081 0.0394704 0.0915521 
50 1 -0.0174131 -0.0968233 0.028183 0.102334 
2495 1 0.124476 -0.0305867 0.0251954 0.130631 
28 1 -0.0797238 0.094851 0.0489297 0.133217 
3055 1 0.0939406 0.0768426 -0.00233391 0.121388 
12 1 0.115095 0.0442671 -0.0333992 0.127757 
3835 2 -0.0129586 -0.080223 0.0673809 0.105564 
4170 2 0.0147425 -0.0207624 -0.0628912 0.0678507 
738 1 0.00550204 -0.0420925 -0.0439249 0.0610855 
2453 1 -0.0366146 0.0946426 0.0569318 0.116358 
3167 1 0.0776696 -0.0816388 -0.0457842 0.121629 
339 1 0.0977522 -0.0469644 0.0131004 0.109237 
390 1 0.0407328 -0.018521 0.0609265 0.0755925 
203 1 0.0204597 0.00110888 -0.0210425 0.0293703 
3582 2 -0.0156711 0.0512274 -0.116521 0.128246 
3632 2 -0.00697526 -0.0506376 0.0197162 0.0547864 
231 1 0.0051612 0.019291 0.0592309 0.0625067 
323 1 -0.0405181 -0.0553284 0.0122874 0.0696701 
3244 1 0.00703424 -0.0207277 -0.064686 0.0682891 
118 1 0.113144 -0.00522316 0.0361883 0.118905 
155 1 -0.0754584 -0.0654204 -0.0888568 0.133676 
2735 1 -0.0438082 -0.0492276 -0.141147 0.155772 
2768 1 -0.0435211 0.12026 0.0891257 0.155884 
2960 1 0.000120252 0.044186 -0.0208533 0.0488597 
29 1 -0.0400059 -0.0290575 0.124147 0.133631 
753 1 -0.0220244 -0.0393625 -0.02243 0.0503745 
3467 2 -0.0176125 0.0236797 0.0222813 0.0369782 
3916 2 -0.0883427 0.0329484 0.0273619 0.0981769 
3251 1 -0.00653188 -0.0276667 0.00717964 0.02932 
4289 2 0.0062103 0.0412335 -0.0830967 0.0929722 
725 1 -0.0673508 0.0674786 0.0462204 0.105952 
1133 1 -0.0409613 0.0204858 -0.0268728 0.0531003 
546 1 -0.116807 0.0188475 -0.0263988 0.121227 
4187 2 -0.0572435 -0.0146394 0.0495499 0.0771124 
437 1 -0.140455 0.00735524 -0.0286194 0.143529 
53 1 0.0168008 0.00122297 -0.0779531 0.0797524 
593 1 -0.094136 -0.00443947 0.00188719 0.0942595 
609 1 -0.0163084 0.0277568 -0.120737 0.124956 
3040 1 0.0374607 0.0327199 -0.0629121 0.0801987 
737 1 0.0928123 0.107424 0.00474568 0.142044 
233 1 -0.0436722 0.0371676 0.0741014 0.0937001 
610 1 -0.0911199 -0.0646627 0.0477505 0.121508 
247 1 0.0596525 0.0730771 0.0487275 0.106175 
89 1 -0.028567 -0.082593 -0.0446784 0.0981521 
3149 1 -0.101429 -0.0340072 0.103379 0.148766 
550 1 0.0377234 -0.0319369 -0.0941673 0.106351 
147 1 -0.0117734 -0.102577 0.146687 0.179381 
3554 2 -0.144441 -0.0252566 -0.0411576 0.152299 
3786 2 -0.0899027 -0.0119227 0.0259802 0.0943377 
5 1 0.0698496 0.0241708 -0.0739275 0.104539 
2591 1 0.0232437 0.121199 0.0642351 0.139124 
3232 1 -0.0567823 0.0562649 -0.0262385 0.0841333 
1215 1 0.0210931 0.0342154 0.0257985 0.0477616 
859 1 0.052833 -0.00747536 0.0503596 0.0733709 
3152 1 0.0481966 -0.0773235 -0.0469225 0.102487 
2936 1 -0.045794 -0.106723 -0.0685265 0.134844 
59 1 0.0206099 -0.0560851 0.00206888 0.0597878 
2461 1 -0.0972646 -0.0734944 -0.114596 0.167314 
988 1 -0.02345 0.0902743 -0.181912 0.20443 
23 1 0.0205018 -0.0368058 -0.0228993 0.0479518 
3743 2 -0.0177392 0.0292124 0.0207683 0.0399921 
3023 1 -0.0614202 0.0667646 -0.0685416 0.113701 
151 1 0.0834965 -0.0680292 0.123366 0.163765 
43 1 0.0618517 -0.0266821 -0.137813 0.153395 
3730 2 -0.0503235 -0.00180618 -0.0190822 0.0538502 
1454 1 -0.0843429 0.0224354 0.0154465 0.0886323 
424 1 0.0640384 -0.0387333 0.00347522 0.0749217 
3478 2 0.0533734 -0.0126151 -0.0241005 0.0599057 
3611 2 0.075294 -0.0186195 -0.0609161 0.0986238 
3346 1 -0.0277483 -0.0302681 -0.0210313 0.0461351 
3199 1 -0.0240166 0.035202 -0.0898021 0.0994002 
100 1 -0.0286754 -0.154388 0.00422379 0.157085 
78 1 0.0589308 0.00504507 -0.0432995 0.0733017 
2500 1 -0.0713399 -0.0745356 -0.0518202 0.115457 
3188 1 -0.0529537 0.156861 -0.0177124 0.166503 
3491 2 -0.00963902 0.105972 0.0556987 0.120106 
717 1 -0.0853327 0.012964 0.0644659 0.107729 
2931 1 -0.0960601 0.00264677 -0.0274953 0.0999527 
691 1 0.00896427 0.0300343 0.00938229 0.0327177 
825 1 0.0682557 -0.0308796 0.102731 0.127146 
3634 2 0.100959 0.0987003 0.0638626 0.154961 
140 1 -0.00264011 0.00206254 0.0605152 0.0606079 
174 1 0.00673556 -0.0846368 -0.0969285 0.128856 
3493 2 0.0931343 -0.0220643 0.116196 0.15054 
529 1 0.100018 -0.0267063 -0.0165517 0.104837 
1480 1 0.064425 -0.00744831 -0.00879241 0.0654474 
2968 1 0.0299503 -0.116927 0.0161492 0.121777 
3464 2 0.0533905 0.0239132 -0.0350246 0.0681844 
98 1 -0.0790198 -0.0579403 0.03297 0.103384 
216 1 0.11134 -0.0268482 -0.0107352 0.115033 
40 1 0.0955985 -0.111069 -0.0349312 0.150651 
4228 2 -0.0597277 -0.0186884 -0.0138545 0.0640984 
1130 1 0.0575019 0.0478048 0.000938499 0.074784 
2994 1 -0.0414005 -0.0746407 0.0378944 0.0933875 
3041 1 -0.0807212 0.0723164 0.00215045 0.108398 
604 1 0.052184 0.0371615 -0.0379919 0.0744818 
721 1 0.0522656 0.00673917 0.0351228 0.0633303 
3164 1 0.0226213 0.0301862 -0.0350463 0.0514896 
241 1 -0.0365542 0.0498409 0.00864863 0.062411 
2494 1 0.0189428 0.0491848 -0.0268104 0.0591335 
3010 1 0.0847712 -0.0563663 0.0984002 0.141584 
64 1 0.0026437 -0.105208 -0.0335804 0.110469 
193 1 -0.0313829 -0.0378103 0.0700975 0.0856047 
44 1 -0.0110474 -0.0145109 0.0129046 0.0223414 
2996 1 0.125358 0.0399065 0.115332 0.174953 
4212 2 0.0424255 -0.00352528 0.0282296 0.0510809 
3279 1 0.0549469 -0.0120701 -0.0434695 0.0710946 
257 1 0.0255855 -0.0219931 0.0140789 0.0365586 
330 1 0.0587185 0.159845 0.0221853 0.171728 
2981 1 -0.0124257 -0.109996 -0.0143293 0.111619 
103 1 -0.0221864 0.014952 -0.0524615 0.0588898 
3841 2 -0.0168697 -0.0261388 -0.00336061 0.0312909 
600 1 -0.0394545 -0.063076 -0.0155231 0.0760013 
338 1 -0.0387442 -0.0836044 -0.0122196 0.0929523 
4101 2 0.0360426 -0.0239899 0.106561 0.115021 
949 1 -0.0247461 0.0180084 0.0399347 0.0503135 
446 1 -0.0581412 -0.0544853 0.132452 0.154573 
3608 2 0.0902977 0.00576298 0.0680876 0.113238 
4217 2 -0.0248875 -0.0250308 -0.0306997 0.0467803 
479 1 0.0496549 0.0239556 -0.0301507 0.0628375 
3335 1 0.0311102 -0.046944 -0.00639582 0.0566789 
1457 1 -0.124934 0.0511625 -0.0466466 0.142835 
3037 1 -0.178107 0.095956 -0.0737324 0.215328 
4253 2 0.0731883 0.0220749 -0.111848 0.135476 
387 1 -0.0385784 -0.0905037 0.0038322 0.0984576 
3736 2 -0.0204153 -0.0693069 -0.0819969 0.109287 
1991 1 0.0202092 0.0437601 -0.0193098 0.0519252 
3394 1 -0.0124966 0.0238304 -0.0563294 0.0624264 
508 1 -0.0623145 -0.0206825 -0.0446094 0.079378 
3537 2 0.020246 -0.0698158 -0.123696 0.143474 
747 1 -0.0064275 0.0609727 -0.0123326 0.0625386 
497 1 0.0293277 -0.0227667 0.00987597 0.0384184 
958 1 -0.0277754 -0.00152241 -0.0100425 0.0295743 
3130 1 -0.0584224 0.0306023 -0.100778 0.120441 
4163 2 -0.0323975 0.166203 -0.0265905 0.171406 
3643 2 -0.0557351 0.0081033 0.00942365 0.057104 
133 1 0.00780369 -0.00467493 0.0325251 0.0337732 
4204 2 -0.0435403 -0.0599253 0.00713279 0.0744156 
86 1 0.0206253 -0.0295419 -0.0844481 0.0918129 
759 1 -0.0128358 -0.0686611 0.0208524 0.0728966 
3411 1 0.0719299 0.0149039 0.0511753 0.0895262 
835 1 -0.0107596 0.137888 0.0745366 0.157113 
3057 1 0.0119902 -0.000359858 -0.0163013 0.0202392 
3620 2 0.00949657 -0.060049 0.0326111 0.0689895 
704 1 -0.000536308 -0.0145965 -0.0994674 0.100534 
3599 2 -0.0379249 0.0442549 0.0143867 0.0600314 
157 1 -0.0523795 0.0928788 0.0433407 0.115102 
54 1 0.000476031 -0.229898 -0.0402258 0.233392 
493 1 0.0185965 0.126963 0.00272999 0.128347 
204 1 -0.103992 0.000784304 0.0488421 0.114894 
254 1 0.048401 0.000446185 0.0514739 0.070657 
178 1 0.108344 0.0278537 -0.122768 0.166091 
580 1 -0.00457037 -0.0729317 0.131911 0.150799 
67 1 0.0129154 -0.0742141 -0.0619569 0.0975356 
2988 1 0.0556717 0.0351087 -0.00476037 0.0659895 
3030 1 -0.0182198 0.00660332 0.137936 0.139291 
4050 2 0.0380187 0.087543 -0.0422693 0.104383 
3479 2 0.0277397 -0.0218297 -0.0615605 0.0709628 
2934 1 0.0328648 0.0487783 -0.0777998 0.0975306 
3216 1 -0.0663343 -0.00275285 0.00464822 0.0665539 
234 1 0.0646655 -0.0814548 -0.0451402 0.113376 
1036 1 0.0713368 -0.120369 -0.0303075 0.143165 
3369 1 -0.0318209 -0.0350658 0.0221888 0.0522927 
3607 2 -0.0646478 0.0239266 -0.0234701 0.0728194 
3139 1 0.0556552 0.0131163 -0.0122475 0.0584768 
644 1 -0.131556 -0.10197 -0.046629 0.172856 
1278 1 0.0133562 0.041056 -0.076464 0.0878107 
4269 2 0.0197931 0.125197 0.0159941 0.127757 
3007 1 0.0119417 -0.0550918 0.0512446 0.0761822 
4089 2 0.0318399 0.0334107 -0.00782683 0.0468115 
214 1 0.00692476 -0.0373856 0.0715567 0.0810309 
640 1 0.0481325 0.0250686 0.00817173 0.0548812 
199 1 -0.0398524 -0.10403 -0.0904431 0.143493 
245 1 0.0637453 0.00604938 0.132582 0.147235 
2758 1 -0.12449 -0.0605081 -0.0709073 0.155521 
3056 1 -0.0564297 -0.0759783 -0.00245051 0.0946732 
3468 2 -0.0968389 0.109284 0.0126057 0.146559 
563 1 -0.0540463 0.127864 0.044741 0.145849 
3644 2 0.00899119 0.0382663 -0.0494688 0.0631848 
1149 1 0.0171767 -0.027207 -0.00240482 0.0322652 
2684 1 -0.169501 0.00681432 0.0113662 0.170018 
249 1 -0.0774699 0.0765366 0.0361334 0.114739 
3096 1 0.0753922 0.115157 -0.0701495 0.154486 
240 1 0.0307089 -0.0280196 0.0914026 0.100412 
181 1 -0.0573376 -0.0589143 0.158947 0.178949 
46 1 0.0318571 0.00547479 -0.0273692 0.0423547 
3211 1 0.0245965 0.00515896 -0.0333414 0.0417523 
354 1 0.0210862 0.00356715 0.06367 0.0671656 
2939 1 0.00969024 0.0978441 -0.0068742 0.0985627 
3512 2 0.0313216 0.0240902 0.0319957 0.050844 
3603 2 -0.119338 0.0886516 -0.0537481 0.158081 
3701 2 0.0201313 0.0124942 0.0742084 0.077899 
3513 2 -0.0102294 -0.0178003 0.043102 0.0477417 
312 1 -0.0902483 -0.103327 0.00610486 0.137326 
587 1 -0.0119708 0.0193583 0.00472434 0.0232457 
134 1 0.0161532 0.0710785 0.0324542 0.0797895 
135 1 -0.0950778 -0.0389299 -0.0703186 0.124499 
1179 1 0.0732473 0.0010674 0.0649471 0.0979001 
3003 1 -0.00847236 0.0324816 0.00413786 0.0338224 
191 1 -0.000510824 -0.0242667 0.0781528 0.0818351 
685 1 -0.0327698 -0.0529556 -0.0744529 0.0970639 
602 1 -0.173498 -0.0185964 0.053301 0.182451 
195 1 -0.0792072 0.042684 -0.0480691 0.102012 
3092 1 -0.0401962 -0.0620433 -0.00368621 0.0740182 
4195 2 -0.0692309 0.0349977 -0.0538135 0.0944121 
2995 1 -0.172212 -0.0281703 -0.0517971 0.182026 
540 1 -0.117945 0.0250129 0.0560063 0.132941 
674 1 0.0116259 -0.00496268 -0.126726 0.127355 
920 1 -0.0733076 0.0962318 -0.0286135 0.124311 
902 1 -0.00346913 0.0722196 0.0940756 0.11865 
2004 1 -0.0890103 0.0187793 -0.0753798 0.118142 
427 1 -0.0861995 -0.020448 -0.0592046 0.106554 
4173 2 0.039421 0.101113 -0.0798871 0.134759 
2950 1 -0.178732 0.00120853 0.0260999 0.180632 
6 1 -0.0435297 0.106078 -0.00958687 0.115062 
182 1 0.0313015 -0.0240469 -0.0932714 0.10128 
690 1 -0.00685572 0.0768677 -0.0366073 0.0854151 
154 1 0.0853886 -0.0290967 0.0357503 0.0970356 
710 1 0.00737241 -0.0939975 -0.0539746 0.108642 
3115 1 -0.0920751 0.155716 -0.00115292 0.180905 
742 1 0.011677 -0.0575209 -0.0883022 0.10603 
2926 1 -0.193387 -0.0267838 0.108455 0.223335 
80 1 -0.0348388 0.0153646 0.0170464 0.041718 
2977 1 0.0337893 0.0562298 -0.156923 0.170083 
95 1 -0.0869501 -0.00376068 0.0689524 0.111036 
3408 1 -0.0174941 -0.0973667 0.0805325 0.127561 
3518 2 -0.127267 0.0121044 0.00958285 0.1282 
205 1 -0.0568841 0.0314673 0.0911672 0.111971 
694 1 0.0133456 -0.0204405 0.0274016 0.0366983 
861 1 0.0367547 -0.0488716 -0.0744628 0.0963538 
3549 2 0.0172792 -0.143751 0.0504975 0.153339 
4014 2 -0.0361668 -0.0679945 0.0304803 0.0828272 
3401 1 -0.0341062 0.0997912 -0.055287 0.119072 
1077 1 0.030757 -0.0382555 0.0634868 0.0802499 
3234 1 -0.087872 -0.0662533 0.0473354 0.119798 
3393 1 -0.0399487 -0.0172823 0.00297826 0.0436285 
3341 1 -0.0520237 0.0366082 -0.105213 0.122948 
512 1 0.0732744 0.0358203 0.12252 0.147185 
300 1 -0.0384995 -0.0216388 0.0154154 0.046777 
393 1 -0.0360449 -0.0682207 -0.0682392 0.103004 
2740 1 0.0352203 0.0143635 -0.00905878 0.0391004 
3197 1 -0.0666565 0.092022 -0.0500666 0.124168 
4006 2 0.0313193 0.0567509 -0.0462051 0.079602 
286 1 -0.0373634 -0.0687574 -0.00366189 0.0783391 
886 1 0.00531274 -0.0798225 0.0304776 0.0856081 
277 1 -0.0391761 0.0291459 0.0462749 0.0672727 
364 1 -0.0122236 0.0716347 0.0348773 0.0806063 
1367 1 -0.0321275 -0.0982524 0.0555459 0.11735 
411 1 0.014293 0.0473312 0.0266456 0.0561651 
3658 2 0.0731214 -0.101941 0.11143 0.167795 
334 1 -0.026635 -0.0162735 -0.0296722 0.0430661 
356 1 0.0814596 -0.0531649 0.00458147 0.0973816 
4154 2 0.00982124 -0.0630971 0.0318841 0.0713744 
357 1 0.0135152 -0.033266 0.0371403 0.0516593 
265 1 0.0303852 0.0363447 0.0229348 0.0526327 
3389 1 0.0149459 -0.0748733 -0.0229974 0.0797388 
362 1 -0.00237101 -0.00795582 0.0692178 0.0697139 
478 1 0.0130755 -0.0128757 0.0488273 0.0521618 
4159 2 0.017521 -0.0490963 -0.125853 0.136222 
2696 1 -0.0134635 0.0414166 0.0326311 0.0544186 
780 1 0.0690215 0.00389039 -0.0406091 0.0801761 
966 1 0.0296927 0.065109 0.0854202 0.111434 
3612 2 0.0506305 -0.0621171 0.058954 0.0994865 
433 1 -0.0367484 0.168722 -0.119197 0.209822 
924 1 0.0720562 0.000332304 0.0989578 0.122413 
2710 1 0.00720701 0.0159282 0.0352724 0.0393674 
3313 1 -0.00174369 0.0336231 -0.0210829 0.0397246 
3482 2 -0.0387426 0.0665487 -0.0838138 0.113818 
3290 1 0.000481116 -0.03693 0.055524 0.0666856 
3192 1 0.0532335 -0.0796374 0.0402823 0.103916 
626 1 0.0889987 -0.00249248 0.0605098 0.107649 
3333 1 -0.0436795 -0.0110587 -0.0995928 0.109311 
3303 1 -0.0317454 -0.0947621 0.0985135 0.14033 
3526 2 -0.0478045 0.0562486 -0.0450032 0.086455 
3249 1 0.00806296 0.130774 -0.0246404 0.133319 
92 1 0.0428811 0.0190318 0.0705875 0.0847561 
3379 1 0.0772908 0.0775864 0.0213424 0.111575 
1449 1 -0.0614521 -0.00456495 0.0506092 0.0797402 
903 1 0.0270848 0.0775867 0.00825259 0.0825917 
160 1 0.0205965 0.0481988 -0.0376438 0.0645321 
553 1 0.00129394 -0.0789422 -0.00132016 0.0789638 
3808 2 -0.0405752 0.0128502 -0.0251106 0.0494168 
462 1 0.00765495 -0.152683 0.0360556 0.157069 
2966 1 0.0674043 -0.0697548 0.0897082 0.132124 
3022 1 -0.0522465 0.00245478 -0.0726226 0.0894973 
750 1 0.00915961 -0.0842073 -0.0145572 0.0859458 
3162 1 0.00120655 -0.0267079 -0.108754 0.111992 
449 1 -0.0210984 -0.0493003 -0.0657649 0.0848568 
3631 2 0.0102592 -0.19349 -0.0610456 0.203151 
287 1 -0.0337841 0.0090163 -0.00732086 0.0357247 
3647 2 -0.0462925 0.0328387 0.0109186 0.0577979 
2890 1 -0.00763998 0.0178477 0.00523846 0.0201085 
1285 1 -0.0278464 0.124038 0.039525 0.133128 
943 1 0.0179607 -0.0609115 0.0112803 0.0644984 
3305 1 0.0398693 0.127901 0.00928932 0.134293 
3209 1 0.00377692 0.0595718 -0.141619 0.153685 
3409 1 0.0355948 -0.0593884 -0.0120608 0.0702811 
4318 2 -0.0728934 0.0385531 0.0431295 0.0930589 
763 1 0.0145813 0.0161902 0.0536437 0.0578998 
3883 2 0.0499764 -0.0443112 -0.0464548 0.0813583 
3531 2 -0.0140437 0.0136521 0.00204547 0.0196924 
3227 1 0.0302781 -0.134333 -0.0251409 0.139979 
373 1 -0.00946023 -0.0252755 0.0331466 0.042744 
4297 2 -0.0872338 -0.00293906 0.13137 0.157723 
3404 1 0.0764293 -0.0326131 0.0154511 0.0845209 
3221 1 0.0404523 -0.00707812 0.0186973 0.0451229 
398 1 0.0306776 0.046244 0.0757625 0.0939126 
2732 1 0.102337 0.0172702 -0.0247033 0.106683 
4123 2 -0.0112275 -0.0615401 0.0408391 0.0747066 
1145 1 -0.0111527 -0.012983 0.0161094 0.0235043 
836 1 0.1281 -0.0305751 -0.0752958 0.151703 
309 1 0.018953 0.0226118 0.0483636 0.0566528 
394 1 0.0149569 0.0297328 0.102806 0.108059 
412 1 0.0335148 0.0657014 0.00691311 0.0740791 
1212 1 -0.0354127 0.0290251 -0.0107831 0.0470403 
3573 2 -0.0390675 0.0628726 0.0984359 0.123162 
3360 1 -0.0286109 -0.00102174 -0.0731705 0.078572 
3319 1 0.0153839 -0.0165053 0.0512711 0.0560162 
3588 2 0.0144001 0.0843508 0.0519876 0.100126 
2365 1 0.0700812 -0.0337753 -0.055437 0.095527 
306 1 -0.110337 0.0815666 -0.0726265 0.155248 
3093 1 0.0667126 0.0621064 0.0420581 0.100383 
2745 1 0.0333132 -0.0419192 -0.0204168 0.0573048 
355 1 -0.143208 -0.00682009 -0.0149549 0.144148 
3097 1 0.0805133 0.0471657 -0.0282223 0.0974859 
228 1 -0.00280569 0.0200383 -0.0231664 0.0307585 
3324 1 0.0471084 0.121254 -0.0459714 0.137968 
951 1 -0.10043 0.0420017 0.00957022 0.109279 
2737 1 -0.121206 0.0919047 -0.0124001 0.152614 
2959 1 0.0908929 0.110167 0.0202818 0.144256 
4284 2 -0.00843952 -0.0191118 0.0547409 0.0585922 
4225 2 -0.00609108 0.0239822 0.0421371 0.048865 
3483 2 -0.0217279 0.040142 -0.0414304 0.0616438 
3337 1 -0.0511887 -0.0335769 0.00407304 0.0613537 
4116 2 -0.0753513 -0.0586242 0.0899644 0.13118 
716 1 0.0286489 0.0353556 -0.128062 0.135907 
389 1 0.0267485 -0.12425 -0.0230992 0.129179 
601 1 -0.0339567 0.0462074 0.0521253 0.0774934 
3094 1 -0.0111485 -0.0206989 0.0199469 0.030832 
3617 2 -0.116584 -0.0385663 0.0655409 0.139193 
206 1 -0.0336286 -0.0499875 0.0534647 0.0805488 
71 1 -0.012574 0.0497812 0.0115488 0.0526275 
3561 2 0.00551305 0.0639228 -0.126906 0.142202 
3676 2 0.0997955 -0.032487 0.0620928 0.121943 
353 1 -0.0266405 -0.0575926 0.0143982 0.0650687 
962 1 0.0230307 -0.0297155 -0.0691888 0.0787434 
1324 1 0.0115429 0.022192 0.00399744 0.0253319 
4185 2 -0.0782846 -0.0578482 -0.0109338 0.0979512 
388 1 0.0975792 0.0956314 0.0205733 0.138168 
1313 1 0.0689966 0.0586401 0.0263301 0.0942999 
444 1 -0.00662434 0.12161 -0.110614 0.164525 
3668 2 0.09416 0.0739897 -0.0489581 0.129373 
838 1 -0.14134 -0.00683409 0.0179418 0.142638 
460 1 -0.183281 -0.0458649 0.00644457 0.189042 
499 1 -0.0707852 0.0487759 -0.016748 0.0875793 
3548 2 -0.17758 0.0195087 -0.0110572 0.17899 
291 1 0.0627992 0.0448031 -0.0218687 0.0801829 
482 1 -0.0960487 0.0999067 -0.0679842 0.154365 
1314 1 -0.0456244 0.0261297 0.0319015 0.0614984 
3672 2 -0.0200957 0.114975 0.0707497 0.136487 
375 1 0.0570774 0.0283711 -0.0303827 0.0706106 
94 1 -0.0585691 0.0156618 -0.0637483 0.0879743 
3281 1 -0.109511 0.0202879 -0.00948004 0.111777 
37 1 0.0267995 0.0206817 0.10189 0.107366 
3321 1 0.0683342 -0.00121499 0.0535463 0.0868231 
4264 2 0.095874 -0.0597977 0.0126372 0.113698 
3664 2 -0.0702397 -0.015578 0.00667243 0.0722552 
3380 1 -0.00871722 0.11502 0.0684397 0.134125 
901 1 -0.07442 0.0156313 0.0488328 0.0903733 
4309 2 -0.0533027 -0.0245501 0.0137968 0.0602846 
392 1 0.0242723 0.0301821 0.0521598 0.0649672 
436 1 0.16573 0.143879 -0.0755091 0.232097 
792 1 0.0732381 -0.0523508 0.0414523 0.0991096 
3293 1 0.0783411 -0.0068255 -0.0904054 0.119821 
1354 1 -0.125805 0.0301877 0.124861 0.179801 
318 1 -0.0770801 -0.119664 0.0489371 0.150518 
3350 1 -0.0784183 -0.0415148 -0.0287618 0.0932746 
3314 1 0.0463878 -0.0182757 -0.0675588 0.0839644 
2861 1 -0.0435245 0.0587684 0.0678054 0.099728 
3180 1 -0.0951085 -0.0782356 0.058728 0.136438 
3150 1 0.0589844 0.0234979 0.0710644 0.0952967 
3320 1 -0.0697984 -0.165526 0.0426383 0.184631 
3095 1 -0.0434553 -0.0216212 -0.0121924 0.0500449 
2479 1 0.0345939 -0.0602847 -0.0297276 0.0755957 
614 1 0.0982897 -0.0213481 0.00484708 0.100698 
771 1 -0.0264835 0.0697361 -0.010303 0.0753037 
3392 1 -0.0503143 0.0249778 -0.00805772 0.056748 
3257 1 0.00722338 -0.0326092 -0.0272899 0.0431309 
2961 1 0.00528462 -0.033413 -0.0298939 0.0451443 
483 1 -0.0179162 0.0820881 0.124364 0.150086 
4271 2 -0.0161124 0.0509684 0.0523962 0.0748515 
1172 1 -0.0373748 -0.0561476 0.0489832 0.0833593 
652 1 -0.0767319 0.0385627 -0.00776409 0.0862273 
3568 2 -0.0909072 0.0369248 0.0204361 0.100226 
3433 1 0.0589396 2.7052e-05 -0.0607434 0.0846383 
3419 1 -0.0794025 0.04915 0.0502131 0.106028 
248 1 0.0455398 0.020776 0.028081 0.0573939 
3560 2 -0.0839295 -0.0664479 0.0500892 0.118188 
3535 2 -0.0623586 -0.000950984 0.0337267 0.0709013 
4028 2 0.045156 -0.0123501 0.0909937 0.10233 
3082 1 -0.0313606 -0.0117665 0.0188938 0.0384566 
3487 2 -0.00174318 0.0895498 -0.00828881 0.0899495 
328 1 0.0731523 0.000393301 0.0156368 0.0748059 
325 1 0.0449648 -0.0239816 0.039682 0.0645881 
292 1 -0.0724536 0.0173908 0.0276812 0.0794872 
3444 1 -0.118787 -0.00800398 0.00848015 0.119358 
908 1 0.0256125 -0.136738 -0.0289166 0.14209 
3504 2 0.195308 -0.0833726 0.00717495 0.21248 
423 1 0.102528 0.0831056 0.0349127 0.136519 
502 1 0.0345555 -0.0120122 0.00840459 0.0375368 
3435 1 -0.00125385 -0.142988 -0.102663 0.176031 
430 1 -0.0828694 -0.0660493 0.0977419 0.144164 
439 1 0.0249351 0.0544426 -0.0367602 0.0702643 
3331 1 0.0023383 -0.00518809 0.0220469 0.0227695 
4182 2 0.0399744 0.0399086 0.0170591 0.0590056 
874 1 0.0181061 -0.00904467 0.0395584 0.0444354 
980 1 0.0540829 -0.0172404 0.0036502 0.0568816 
810 1 -0.0068706 0.00801144 0.0710972 0.0718763 
3312 1 -0.0304499 -0.0291645 0.0719876 0.0834265 
1442 1 0.0329738 -0.0455016 -0.0452256 0.072132 
225 1 -0.12202 -0.0617151 0.0445963 0.143828 
4280 2 -0.0546562 0.0850458 0.0133544 0.101973 
416 1 0.0514241 -0.000861321 0.0739061 0.0900405 
365 1 0.00580722 -0.061325 -0.0195265 0.0646201 
3799 2 -0.0198087 -0.0393475 -0.0375567 0.0578888 
2819 1 -0.0231252 -0.0125161 0.109485 0.112598 
382 1 0.0837878 0.0418409 -0.106955 0.142164 
404 1 0.0574726 0.0143853 -0.119881 0.133722 
2776 1 0.076143 0.0774761 0.0935745 0.143375 
2973 1 -0.0126392 -0.0437901 0.0283878 0.0536953 
957 1 -0.0362273 0.0220465 0.0111886 0.0438594 
795 1 0.024064 -0.131838 0.178837 0.223479 
490 1 -0.0664907 -0.0306737 0.00933917 0.0738181 
3266 1 -0.113762 0.044483 0.0503234 0.132109 
2884 1 -0.102375 0.00414259 -0.0250982 0.105488 
4298 2 -0.190189 0.104885 -0.0223771 0.218343 
4285 2 0.0569141 0.0246419 0.0925879 0.11144 
496 1 0.0440955 0.013657 0.0333344 0.0569395 
2993 1 -0.00302474 0.0254631 0.0189892 0.0319078 
4256 2 0.0488169 -0.0625689 0.023053 0.0826401 
471 1 -0.00194604 0.060753 0.0651203 0.0890807 
517 1 -0.00349296 0.00201095 3.73088e-05 0.00403064 
279 1 0.0388031 0.0394926 0.0256365 0.0610129 
187 1 0.0441411 0.0552995 -0.0316079 0.0774953 
917 1 -0.0542166 -0.034776 -0.0520687 0.0828249 
3322 1 -0.00294281 0.0181567 0.0970222 0.0987503 
3863 2 -0.184813 0.0579927 -0.00457585 0.193752 
274 1 -0.066992 -0.0168933 -0.00391347 0.0691999 
1091 1 0.0047169 0.0529616 0.142907 0.152478 
3396 1 0.0815252 0.00794334 0.0399103 0.0911169 
349 1 0.0943377 -0.0122114 0.0391748 0.102876 
2545 1 -0.0590198 0.00255135 -0.0743917 0.0949946 
3327 1 -0.114231 -0.024721 -0.0175207 0.118181 
3674 2 -0.049282 0.0643101 0.0893233 0.120595 
1418 1 0.1849 0.0179153 0.0486223 0.192024 
443 1 0.0648442 0.0989039 0.0651668 0.135031 
855 1 0.0182819 0.0512707 -0.133429 0.144105 
3420 1 0.0746015 -0.0596207 -0.0890821 0.130597 
2869 1 -0.0670526 -0.180969 0.034233 0.196005 
4307 2 0.0303252 -0.196795 -0.0526966 0.205973 
3476 2 0.00885084 -0.124582 -0.0619194 0.139402 
177 1 0.00515175 0.0127608 0.0161636 0.0212283 
363 1 -0.0288275 -0.125806 -0.0580955 0.141539 
1450 1 -0.0252673 0.028878 -0.0041467 0.038595 
3559 2 -0.0136167 0.0337625 -0.0730517 0.0816203 
347 1 -0.0560464 -0.0882839 -0.0354798 0.110427 
4237 2 -0.0502273 -0.0267343 0.0124147 0.0582377 
319 1 -0.0674852 0.054366 0.04165 0.0961491 
830 1 -0.051192 0.006935 -0.00874403 0.0523944 
295 1 -0.0623096 -0.0157286 -0.0489326 0.080773 
937 1 -0.0294832 -0.00395368 0.0420708 0.0515251 
268 1 0.0924647 0.00163373 0.0666011 0.113965 
854 1 -0.00691307 0.076601 -0.0253248 0.0809744 
442 1 0.0111841 0.0338933 -0.0281598 0.0454623 
875 1 0.0429437 -0.0727495 0.0401744 0.0935449 
501 1 0.0460232 -0.0299471 0.00206144 0.0549474 
1289 1 0.0452874 0.0219951 0.0190681 0.0538361 
3291 1 0.0895514 -0.0268217 0.0118333 0.0942279 
314 1 0.0298035 0.0329225 -0.0407829 0.0602942 
474 1 -0.0365871 0.0221842 -0.00781583 0.0434953 
3070 1 0.0546437 0.0367159 -0.0134448 0.0671919 
964 1 0.0852413 0.0817835 0.0244085 0.120625 
793 1 0.0602634 0.0428589 0.0958578 0.121067 
3397 1 0.0145344 0.0240596 -0.0326255 0.0430643 
899 1 -0.0761553 0.104321 0.0144325 0.129964 
1337 1 -0.0228307 0.0623013 -0.0133304 0.0676786 
3278 1 0.0138614 0.00149696 -0.125677 0.126448 
3544 2 0.0595634 0.0203471 -0.0439142 0.076748 
1430 1 -0.00913469 0.0257307 -0.0396393 0.048133 
3200 1 -0.0141433 -0.0765059 0.0839767 0.114478 
757 1 -0.105774 0.101467 0.049858 0.154821 
822 1 -0.0113654 -0.0118062 0.0625421 0.0646535 
3678 2 -0.0138827 0.006527 0.0615293 0.0634129 
699 1 -0.0223849 0.0225458 0.00744024 0.0326306 
329 1 0.0624113 0.112185 -0.0727834 0.147574 
3383 1 -0.0991166 0.0532327 -0.00215881 0.112528 
85 1 0.0538272 -0.112079 0.128494 0.178801 
3240 1 -0.0519166 -0.060621 0.0246759 0.0835412 
113 1 0.00977882 0.0551555 -0.0803872 0.0979789 
504 1 -0.0695046 -0.225788 0.0450855 0.240507 
581 1 0.0372311 -0.0348925 0.13683 0.146035 
2795 1 -0.0611992 -0.0565256 0.0653266 0.105868 
3541 2 0.0075627 0.0300085 -0.0106478 0.0327273 
786 1 -0.0323685 -0.0421611 0.12189 0.132975 
800 1 -0.029903 0.0143602 -0.0207059 0.0391042 
367 1 -0.0102452 0.0167305 0.0184188 0.0269096 
2687 1 0.0582997 -0.1524 -0.0102349 0.163491 
3545 2 0.0145976 -0.0109133 -0.0187856 0.0261742 
491 1 0.0112203 0.0711571 0.0181891 0.0742972 
781 1 -0.040985 -0.0537971 0.14408 0.159163 
3378 1 -0.0118554 0.1319 0.0462267 0.140268 
4098 2 -0.0248536 0.0850427 -0.0319864 0.0941971 
3434 1 -0.0275733 0.101396 -0.0746303 0.128884 
2814 1 0.0247195 0.137071 0.0444966 0.146217 
1723 1 -0.0389561 0.0100986 0.0401216 0.056827 
3264 1 -0.0219344 0.00410906 0.105603 0.107935 
440 1 0.0371917 -0.0842626 0.0945537 0.131999 
431 1 0.0776286 0.0176306 0.000784161 0.0796094 
107 1 -0.0317041 0.0612481 0.0388325 0.0791482 
1254 1 -0.0326351 0.014234 -0.123228 0.128269 
968 1 0.0126731 0.0563842 0.0245289 0.062781 
801 1 -0.0129739 -0.0630959 -0.0490199 0.0809467 
2656 1 0.0520344 0.0459479 -0.100989 0.122547 
421 1 0.0411036 -0.000568927 -0.103245 0.111128 
4152 2 0.0220787 0.179598 -0.084673 0.199781 
461 1 0.0299779 0.14012 -0.132121 0.194906 
3339 1 -0.0160641 0.0817912 0.0970829 0.127957 
840 1 -0.0676961 0.0907769 -0.0300203 0.117151 
3436 1 -0.091774 -0.0182995 0.0847064 0.126224 
3371 1 -0.107045 0.0758884 0.027217 0.134009 
486 1 0.0259155 -0.0533748 0.0114841 0.0604348 
308 1 -0.0163261 0.00604703 -0.0482695 0.0513133 
307 1 -0.0348119 0.018205 0.067549 0.0781419 
208 1 -0.0317888 0.040765 0.0173803 0.054538 
647 1 0.0039671 0.06777 0.0676124 0.0958121 
402 1 0.0108284 0.0371029 0.173029 0.177293 
4143 2 -0.0448167 -0.00386908 0.104055 0.113362 
2873 1 0.0461592 0.0441184 0.0286637 0.0699908 