ITEM: TIMESTEP
1020
ITEM: NUMBER OF ATOMS
4320
ITEM: BOX BOUNDS pp pp pp
0.0000000000000000e+00 1.9309999999999999e+01
0.0000000000000000e+00 1.9309999999999999e+01
0.0000000000000000e+00 9.6549999999999994e+00
ITEM: ATOMS id type c_displacement[1] c_displacement[2] c_displacement[3] c_displacement[4] 
3196 1 0.20213 -0.0193973 0.150789 0.252923 
381 1 0.129941 0.0340529 -0.0717257 0.152279 
327 1 0.0768683 0.036089 0.0146654 0.0861756 
484 1 0.101944 0.0960953 -0.0254007 0.14238 
728 1 0.0810021 0.00754674 -0.150831 0.171372 
817 1 0.0904965 0.0157648 0.0373838 0.0991751 
3006 1 0.0476698 0.111373 0.122624 0.172375 
3679 2 0.0966489 0.00184672 0.192401 0.21532 
3463 2 -0.127454 0.0952191 0.223496 0.274338 
2945 1 -0.1183 0.101838 0.00219135 0.156111 
3230 1 0.0557608 -0.0525272 -0.119803 0.142201 
3651 2 -0.0242703 0.0864073 0.135815 0.162791 
66 1 0.108708 0.0554732 -0.0151357 0.122978 
400 1 -0.100774 0.0968899 -0.0196604 0.141172 
677 1 0.138497 -0.0340993 -0.00317809 0.142668 
623 1 0.11541 -0.00746645 -0.0117456 0.116246 
87 1 0.0142851 0.20556 0.0452573 0.210967 
3199 1 0.0666849 0.0520979 0.0099344 0.0852043 
727 1 0.0353952 -0.140639 0.0322241 0.148562 
688 1 0.0946817 0.0943743 0.0118668 0.134209 
58 1 0.0143845 -0.0292158 0.0603203 0.0685493 
3514 2 0.0743099 0.104042 -0.120165 0.17546 
18 1 0.169889 0.0942466 0.1316 0.234656 
3618 2 -0.111744 0.179565 0.0367342 0.214662 
190 1 0.0109339 0.173259 -0.110622 0.205852 
298 1 0.0606516 -0.109957 -0.10754 0.16533 
559 1 0.108344 0.0988961 0.014724 0.14743 
110 1 0.0797052 -0.230373 -0.11833 0.270973 
180 1 0.116441 0.0294688 0.115959 0.166953 
106 1 0.00968979 0.0173997 -0.2122 0.213132 
217 1 0.107028 0.0584427 -0.0140815 0.122755 
775 1 0.0405258 0.11983 -0.146754 0.193748 
3627 2 0.0920174 0.136069 -0.166454 0.233856 
608 1 0.0418117 0.00257849 0.0264434 0.0495391 
7 1 0.0287082 0.00758349 -0.033109 0.0444733 
3118 1 0.0646423 0.138017 -0.14846 0.212762 
562 1 -0.00620957 -0.0348691 -0.0320035 0.0477351 
70 1 0.101374 0.130784 0.0363331 0.169415 
121 1 0.0165273 -0.0517287 -0.13428 0.144845 
1118 1 -0.0514968 -0.0914951 -0.00583562 0.105154 
210 1 0.164205 0.0675549 0.0931296 0.200499 
232 1 -0.138916 0.135123 0.00839452 0.193975 
4214 2 0.260912 -0.0405224 0.0731406 0.273983 
4170 2 0.101536 0.0117319 -0.0046512 0.102318 
65 1 0.021739 -0.0665431 0.0630145 0.0941881 
226 1 0.29929 0.00917405 0.126149 0.324919 
532 1 -0.064979 0.0998722 0.105714 0.159286 
3578 2 0.0570106 0.0522244 -0.0906167 0.119118 
473 1 0.0314654 -0.0687113 0.0581236 0.0953397 
246 1 0.148499 0.114135 -0.0297447 0.18964 
3712 2 0.00116619 0.0714011 -0.0839439 0.110209 
553 1 0.0197256 0.00727541 -0.0517729 0.055879 
3460 2 0.126035 0.0332187 0.046924 0.138529 
4071 2 0.184406 0.278925 0.294349 0.445473 
2838 1 0.375147 0.228758 -0.0415732 0.441355 
536 1 0.0638832 0.0618419 0.0627341 0.108817 
894 1 0.0568235 -0.0241747 0.113034 0.128802 
289 1 -0.0320926 -0.0232848 -0.00993755 0.0408763 
351 1 0.0183899 0.0972128 0.0182019 0.100597 
197 1 0.240673 -0.165578 -0.0602816 0.298284 
3135 1 0.0844304 0.0791743 0.152964 0.19182 
303 1 -0.00507601 0.115614 0.0152984 0.116732 
1415 1 0.0153516 -0.00990685 0.0221078 0.0286805 
527 1 -0.0900924 0.00071677 0.0587345 0.10755 
3002 1 -0.0732379 0.124399 0.141871 0.202401 
3189 1 0.0011211 -0.0595987 0.121526 0.135358 
712 1 0.00545086 -0.105419 0.0679646 0.125547 
718 1 0.0372451 0.0266067 0.0757476 0.0885032 
3469 2 0.000593363 0.030352 0.09653 0.101191 
4177 2 0.111524 -0.435147 0.202743 0.492844 
93 1 -0.0788382 0.0858402 0.187799 0.221026 
569 1 0.122062 -0.0147519 -0.0771562 0.145154 
639 1 -0.139047 0.0283006 0.0826161 0.164196 
21 1 -0.0285845 -0.0777787 0.0195233 0.0851338 
96 1 0.0877271 0.0618035 0.00822968 0.107626 
3353 1 -0.0627469 -0.175505 -0.0406577 0.190767 
823 1 0.0403862 -0.0268156 -0.0513789 0.0706393 
2596 1 0.018927 -0.216671 0.143734 0.260699 
50 1 -0.0162946 -0.113108 0.0662524 0.132092 
2495 1 0.0393602 0.0543172 0.1392 0.154519 
28 1 -0.0269768 0.0412694 0.0388632 0.0627795 
3055 1 0.0996783 0.0149592 0.0430931 0.10962 
12 1 0.14092 0.0846724 -0.0867438 0.185883 
3346 1 0.182654 -0.0221645 -0.0160909 0.184697 
738 1 0.0561102 0.0294035 0.0188079 0.0660807 
2453 1 0.158906 0.058056 -0.00130281 0.169184 
3167 1 0.00508452 -0.0127405 0.145006 0.145653 
339 1 0.11513 0.138237 0.0432849 0.185035 
988 1 -0.0262385 0.168758 -0.154722 0.230449 
737 1 0.00733665 0.167921 -0.0272163 0.17027 
2939 1 0.10091 0.0465362 0.177272 0.209222 
390 1 0.0879285 -0.0208145 0.0273635 0.0944109 
203 1 0.0911056 -0.00257497 0.00234257 0.0911721 
3582 2 0.0256079 0.192169 0.0225299 0.195173 
3632 2 0.195629 0.25457 -0.108876 0.339014 
231 1 0.259934 0.100002 0.0850687 0.291209 
323 1 0.0302483 -0.0243225 0.0258882 0.0466556 
3244 1 0.0657979 0.0989571 -0.0403121 0.125487 
118 1 0.231688 0.061157 0.0348558 0.242145 
2735 1 -0.0106666 -0.0724618 -0.0262253 0.0777962 
2768 1 0.0543797 0.155179 -0.0176934 0.165381 
2960 1 -0.00952621 0.00168839 0.0530529 0.0539278 
29 1 0.00390085 0.062629 0.101846 0.119626 
753 1 0.0405339 0.0857218 -0.0697145 0.117692 
3467 2 -0.0917991 0.13866 0.147169 0.222064 
4289 2 0.00560664 -0.0435297 0.0614467 0.0755114 
2936 1 0.0639607 0.0177004 -0.0605417 0.0898308 
3478 2 0.160966 0.0452206 0.0472571 0.173747 
725 1 -0.108362 -0.0177502 0.169056 0.201587 
3877 2 0.102764 0.116486 -0.124201 0.198885 
3611 2 0.0749488 0.0726814 0.112455 0.153447 
4187 2 -0.0136446 0.0331331 -0.0819746 0.089464 
437 1 0.0958196 0.0469071 0.11659 0.158035 
53 1 0.12083 0.198045 -0.0519825 0.237748 
593 1 -0.0286114 0.0404871 0.163963 0.171294 
609 1 0.132277 -0.045395 0.0274887 0.142525 
3040 1 0.0821693 0.121016 0.0503565 0.154701 
546 1 -0.0830699 -0.119521 0.0505776 0.154091 
167 1 0.0545872 -0.0125422 0.150733 0.160803 
594 1 0.182004 -0.0938559 0.00742566 0.204914 
610 1 0.0396965 -0.0832403 0.168417 0.192013 
247 1 0.0410679 -0.0884646 0.0762234 0.123784 
89 1 -0.019575 -0.0471078 0.133918 0.143305 
3149 1 0.00471603 -0.0617557 0.200857 0.21019 
550 1 -0.0288232 -0.00307256 0.0584212 0.065217 
147 1 -0.0494514 -0.0842046 0.0805242 0.12657 
3554 2 -0.113289 -0.0324231 0.0916819 0.149302 
3786 2 -0.0721487 -0.0298843 -0.014409 0.0794111 
5 1 -0.0596454 0.0606444 0.0402883 0.0941194 
2591 1 -0.0249826 0.169291 0.0779533 0.188043 
3232 1 0.0171055 -0.00872353 -0.0893324 0.0913727 
1215 1 0.178304 0.000229271 -0.0732629 0.192769 
859 1 0.25077 -0.0740525 0.14662 0.299778 
3152 1 -0.0573071 -0.0146028 0.0385926 0.0706168 
903 1 0.250824 0.33055 0.335362 0.53352 
103 1 -0.0844868 0.0446664 -0.0828745 0.126496 
2461 1 0.00469453 -0.00515226 -0.0671162 0.0674772 
23 1 -0.104064 0.0924181 0.008516 0.139438 
3743 2 -0.0155713 0.0495433 0.0137918 0.0537328 
3023 1 0.0184334 0.0849692 -0.0482983 0.09946 
151 1 0.0869508 -0.0213972 0.0891202 0.126336 
43 1 -0.0986578 0.0974548 0.0125879 0.139245 
3730 2 -0.030106 -0.163324 -0.120686 0.205296 
424 1 -0.00771153 0.111871 -0.00111465 0.112142 
389 1 0.1867 -0.255489 -0.000725548 0.316437 
3251 1 0.0137739 -0.0706743 -0.0660503 0.0977099 
1454 1 0.0122421 0.00522334 -0.107502 0.108323 
3916 2 -0.0378642 -0.00272943 -0.0108745 0.0394893 
3808 2 0.0785588 -0.0130319 0.0645308 0.102497 
1133 1 -0.0255677 0.0462498 -0.0230907 0.0576709 
2500 1 0.02234 -0.0591855 0.00200006 0.0632929 
3188 1 0.109506 0.0627678 0.0593264 0.139466 
3491 2 0.132625 0.0478155 -0.0639776 0.154819 
717 1 -0.00297295 0.0352887 0.236155 0.238796 
2931 1 -0.018583 0.0465077 0.0259146 0.0563902 
691 1 0.118546 -0.0897633 0.100811 0.179648 
3643 2 0.0728537 0.0981684 0.089885 0.151737 
174 1 0.139906 -0.134214 0.0390769 0.197773 
3493 2 0.195102 -0.0271104 0.267296 0.332035 
3634 2 0.182041 0.127305 0.0851646 0.237905 
2994 1 -0.13529 -0.122741 0.142785 0.231854 
529 1 0.196605 -0.119241 0.143557 0.271073 
1480 1 0.107321 -0.0584341 0.136639 0.18331 
2968 1 0.0425989 -0.0603092 0.109565 0.132122 
3464 2 -0.00210618 -0.0104615 0.0812251 0.0819231 
98 1 0.121991 -0.181912 0.224429 0.313596 
216 1 0.015974 -0.0752206 -0.0140153 0.0781648 
40 1 0.0433274 -0.0834372 0.055109 0.108977 
1130 1 -0.0739269 -0.0357054 0.129278 0.153144 
1102 1 -0.0184803 0.00668182 0.0598919 0.0630334 
3041 1 -0.0511135 -0.134019 -0.0535368 0.153101 
604 1 -0.0444363 -0.0314747 0.043781 0.0698715 
721 1 -0.283173 -0.0978905 -0.00453746 0.29965 
3164 1 0.0128872 0.0699698 -0.0333292 0.0785664 
1179 1 0.112104 0.053357 -0.00521121 0.124264 
237 1 0.0770784 0.0564093 -0.0507699 0.10817 
64 1 -0.0800355 -0.0719708 -0.0829515 0.135891 
193 1 0.0368763 -0.0603448 -0.0788166 0.105893 
44 1 0.0528259 -0.184434 0.00629051 0.191953 
2996 1 0.0433891 0.106891 -0.173244 0.208139 
4212 2 -0.241872 0.0455472 -0.0287557 0.247797 
3279 1 -0.112035 -0.176426 0.0499161 0.214871 
920 1 0.0573709 0.132647 -0.219495 0.262801 
178 1 -0.00080635 0.0424587 -0.0652858 0.0778821 
330 1 -0.105791 0.22415 0.159787 0.294901 
233 1 0.0655262 -0.0112183 0.296276 0.303643 
1991 1 0.12068 0.00805446 0.037266 0.126559 
600 1 -0.125218 0.0142525 -0.107523 0.165662 
338 1 -0.107298 -0.0726322 -0.0189533 0.130949 
4101 2 -0.05039 0.00401291 0.115022 0.12564 
949 1 -0.136933 0.0245835 -0.01439 0.139864 
78 1 0.0916523 0.0822078 0.000367683 0.12312 
2995 1 -0.163159 -0.220084 -0.0271707 0.275311 
4217 2 -0.17441 -0.0129676 0.101828 0.202376 
479 1 -0.218407 0.0332712 -0.000867731 0.220929 
3335 1 -0.121304 -0.0314451 -0.0376009 0.130833 
1457 1 -0.0303648 -0.0911911 0.000404213 0.0961146 
3037 1 0.0504498 0.152974 -0.0168181 0.161954 
4253 2 0.0612957 -0.00376191 -0.0617943 0.0871197 
387 1 -0.054435 0.0457468 0.0442 0.0837232 
3736 2 -0.173064 0.297937 0.0790371 0.353503 
3394 1 -0.00388864 -0.0239604 -0.0648179 0.069214 
508 1 0.0270346 -0.0653936 0.0604089 0.0930399 
3537 2 0.179741 -0.0321406 -0.100418 0.208383 
747 1 0.0513132 -0.0125142 0.104963 0.117503 
497 1 0.138482 -0.0463526 0.0852132 0.169077 
958 1 -0.037615 -0.0689414 0.147903 0.167461 
3130 1 0.0887388 -0.153186 0.0855618 0.196625 
4163 2 0.0794669 0.0271805 0.0392136 0.0926902 
551 1 -0.158922 -0.0702722 -0.0225199 0.175219 
133 1 0.0717903 0.00396168 0.117569 0.137811 
4204 2 -0.0733556 -0.0861746 0.144874 0.183836 
86 1 0.168242 0.0199893 0.0309392 0.172227 
759 1 0.113243 0.0156861 0.183395 0.216111 
3411 1 0.0883543 0.0620609 0.0882071 0.139422 
835 1 0.0716956 -0.102693 0.221064 0.254077 
3057 1 0.0287356 0.02895 0.120834 0.127533 
3620 2 -0.145408 0.174462 0.0797652 0.240714 
241 1 -0.1553 0.033638 0.140773 0.212289 
704 1 0.218035 0.0466928 -0.0615527 0.231318 
3599 2 -0.21313 0.139126 -0.054466 0.260282 
157 1 0.192124 -0.00586539 0.0787642 0.207725 
54 1 0.0674714 -0.143463 0.0954249 0.18504 
493 1 -0.0813685 0.279376 0.0346583 0.293041 
204 1 -0.0983733 0.0168066 0.0277961 0.103597 
254 1 0.169546 0.0705091 -0.14569 0.234399 
67 1 0.184805 -0.122517 -0.0809643 0.236048 
2988 1 -0.171795 0.1568 -0.123489 0.263343 
3030 1 -0.343004 0.25031 -0.11494 0.439907 
4050 2 0.0227556 0.202236 -0.0447733 0.208379 
3479 2 0.00514192 0.45858 -0.015961 0.458886 
674 1 0.062096 0.0236388 -0.158252 0.171634 
2004 1 -0.1525 -0.0248045 -0.00767173 0.154694 
4228 2 0.0365363 -0.095705 0.132634 0.167589 
3216 1 -0.155064 0.112782 -0.0281052 0.19379 
234 1 -0.0327171 0.011153 -0.0465453 0.0579764 
1036 1 0.0330379 -0.0975639 6.41151e-05 0.103006 
3369 1 -0.0565791 -0.0682411 0.159204 0.18222 
3607 2 -0.144094 -0.120563 0.149194 0.239911 
3139 1 -0.00957417 0.0080168 0.060915 0.0621818 
644 1 -0.242955 -0.0692331 0.0426948 0.256209 
1278 1 0.0679771 0.0549052 -0.0774321 0.116753 
4269 2 -0.0876977 0.107189 0.199568 0.242915 
2934 1 0.120568 0.0365108 -0.166133 0.208494 
354 1 0.162472 0.133198 0.0759155 0.223388 
4089 2 0.015853 0.0236952 0.0101243 0.0302536 
214 1 -0.0481763 -0.115659 -0.00453888 0.125374 
640 1 -0.152839 -0.0407101 0.0760849 0.175516 
199 1 -0.0112281 -0.044588 0.0419559 0.0622451 
245 1 -0.0212123 -0.022516 0.135489 0.138976 
2758 1 -0.00612025 0.0354511 0.000718782 0.0359827 
3056 1 -0.036123 -0.145096 -0.0161002 0.150389 
3468 2 -0.237112 0.0169077 0.160838 0.287013 
563 1 -0.173816 0.192559 -0.0264298 0.260748 
2977 1 -0.118809 -0.0640479 0.163293 0.211855 
1149 1 0.0346721 -0.0819917 -0.107829 0.139828 
140 1 0.21412 -0.0846452 0.00443811 0.230286 
249 1 -0.079177 0.0521672 0.133184 0.163488 
3096 1 -0.0502873 0.0894976 0.0776627 0.128725 
240 1 -0.00123389 -0.0524057 0.145011 0.154195 
181 1 -0.0294766 -0.111619 0.0376465 0.121429 
46 1 0.000886574 -0.104048 0.0676134 0.12409 
3211 1 0.0129332 -0.121504 0.0811589 0.146687 
3608 2 0.0822685 -0.105798 -0.0133578 0.134684 
95 1 -0.088485 -0.0193481 0.0806321 0.121266 
2684 1 -0.0169246 -0.0441249 0.0701326 0.0845697 
3512 2 0.0894106 -0.00354022 0.156526 0.180297 
3603 2 -0.0346105 0.0827985 -0.0103485 0.0903359 
3701 2 0.0889538 0.00822124 0.178028 0.199184 
3513 2 0.111942 -0.00428129 0.00986185 0.112457 
312 1 -0.0232796 -0.140184 0.168202 0.220194 
587 1 0.0897035 0.0522118 0.167458 0.197015 
134 1 0.0875385 0.0935397 0.0144817 0.128928 
135 1 -0.0126435 -0.00120384 -0.109865 0.110597 
3003 1 0.0136844 0.000285353 0.158167 0.158758 
191 1 0.164563 0.239651 0.0700441 0.299032 
685 1 0.0693078 -0.029095 -0.0765154 0.10726 
602 1 -0.0565688 0.0375639 0.0842085 0.108176 
195 1 0.181345 0.04555 0.0323179 0.189751 
3092 1 0.0726172 0.00251725 0.0915765 0.116901 
4195 2 -0.116365 -0.131129 -0.0505675 0.182463 
80 1 -0.0958787 0.0294655 -0.00279496 0.100343 
540 1 -0.243689 0.222728 -0.215179 0.394074 
2981 1 -0.115717 -0.0271006 -0.0692551 0.137554 
427 1 0.0294094 0.0770197 -0.0862015 0.11928 
4173 2 0.040804 0.104619 -0.247578 0.271855 
2950 1 -0.16091 -0.0540632 -0.0264085 0.171791 
6 1 -0.188768 0.104002 -0.0388517 0.218996 
182 1 -0.0384766 -0.0436142 -0.244425 0.251249 
690 1 0.0967101 -0.00570781 -0.0457022 0.107117 
3408 1 -0.163156 -0.0511303 0.179781 0.248104 
902 1 -0.00638895 0.22597 -0.0937812 0.244741 
154 1 -0.00382702 -0.0281713 -0.0248572 0.0377644 
710 1 -0.07615 0.0121038 -0.17471 0.190968 
3115 1 -0.225823 0.078787 0.0555688 0.245543 
742 1 0.115765 0.0297993 -0.211861 0.243259 
2926 1 -0.0545814 0.0645251 0.165059 0.185438 
446 1 0.0798462 0.0824735 0.212075 0.24115 
580 1 -0.152898 0.0796493 0.308449 0.353359 
3518 2 -0.204961 0.240119 0.0839323 0.326666 
825 1 0.0851618 0.0110347 0.0955113 0.128439 
3841 2 -0.0572896 -0.152522 -0.038225 0.167351 
3644 2 -0.0601828 0.0464001 -0.0581714 0.0957018 
215 1 0.0139352 0.0900338 -0.0158812 0.0924797 
205 1 -0.231144 0.203785 0.0382513 0.310514 
694 1 -0.14387 0.229573 0.0784167 0.282048 
861 1 -0.0906705 -0.0450947 0.109501 0.149148 
3549 2 -0.0896795 0.0578732 -0.168856 0.19976 
3290 1 -0.030138 0.0395787 0.0139734 0.0516724 
3401 1 -0.141746 0.102058 0.134128 0.220222 
334 1 -0.124601 -0.00635207 0.0198302 0.126329 
614 1 0.137589 0.0170371 0.0579956 0.150281 
3341 1 -0.00556972 0.284034 -0.0424661 0.287245 
512 1 0.24603 0.129919 0.122035 0.303813 
300 1 -0.0547489 0.127792 0.100181 0.171361 
393 1 0.0896799 -0.0309519 0.0528215 0.108585 
2740 1 -0.0312361 0.181775 0.0587619 0.193573 
4257 2 0.238247 0.24558 -0.174855 0.384247 
4006 2 -0.383519 -0.10296 0.119934 0.414816 
286 1 -0.00274246 -0.0486747 -0.160358 0.167605 
886 1 0.232267 0.201943 0.0116962 0.308003 
277 1 -0.217584 -0.0377859 0.0160345 0.221422 
364 1 -0.135287 -0.0218484 0.136254 0.193249 
1367 1 0.0584773 0.0357539 -0.0258377 0.0732497 
411 1 -0.100029 0.115501 -0.034967 0.156745 
3658 2 0.0680335 0.101672 0.276839 0.302664 
356 1 0.0692539 -0.048927 -0.0805362 0.116945 
1324 1 0.0132836 -0.0473263 0.0517799 0.071396 
357 1 -0.15614 0.0105777 -0.0019978 0.15651 
265 1 -0.06246 0.0339831 0.0870099 0.112369 
3389 1 0.0147659 -0.0653401 0.025073 0.0715263 
362 1 -0.187311 0.0226001 -0.108991 0.217888 
478 1 -0.024667 0.101609 0.0682505 0.124864 
4159 2 -0.124667 0.024614 -0.0203049 0.128686 
2696 1 -0.00657726 0.0139651 -0.0884837 0.0898201 
966 1 -0.0395418 0.105369 -0.0438284 0.120778 
3612 2 -0.0840148 -0.111484 -0.135319 0.194418 
3392 1 -0.00403292 0.01477 -0.100489 0.101649 
780 1 0.0673197 0.0599074 -0.0129719 0.0910446 
4116 2 0.0542597 -0.0992903 0.121425 0.165972 
2710 1 -0.160645 -0.00647058 -0.00483081 0.160847 
3313 1 -0.0652679 0.0325826 -0.0303851 0.0790239 
433 1 -0.0695502 0.00969005 0.0949402 0.118088 
468 1 0.0691135 0.173577 0.215056 0.284876 
3333 1 -0.22419 -0.0173787 -0.082072 0.239372 
3303 1 -0.0320299 -0.0791841 0.161798 0.182961 
3526 2 -0.188858 0.0509457 -0.0544065 0.203034 
3249 1 0.044832 0.105782 -0.0325744 0.119418 
92 1 -0.0982549 0.232814 0.251482 0.35651 
3379 1 0.047067 -0.00264629 0.0814655 0.0941219 
1449 1 -0.0405483 -0.00621149 0.00044601 0.0410237 
160 1 -0.0527976 0.126386 0.0234301 0.13896 
1077 1 0.21147 0.111216 0.151381 0.282851 
462 1 -0.110382 -0.120782 0.0841472 0.183993 
2966 1 0.0155154 -0.0950778 0.177564 0.202014 
3022 1 0.0576697 0.0354854 0.0224011 0.0713219 
750 1 0.0499285 0.0875832 -0.0499975 0.112532 
4056 2 -0.311423 0.037163 0.263953 0.409922 
449 1 -0.01731 0.0203336 -0.123338 0.126196 
3482 2 -0.146852 -0.0960506 -0.0596423 0.185333 
287 1 0.119444 -0.122832 -0.243935 0.298093 
3647 2 0.243082 0.152955 0.150562 0.324273 
2890 1 0.116194 0.0270996 0.14034 0.184203 
1285 1 0.0987686 -0.0124884 0.0329523 0.104867 
943 1 0.0788299 0.153637 0.0977951 0.19845 
3305 1 0.0769637 0.0817992 0.102158 0.151825 
3209 1 0.222364 0.056781 0.0276847 0.231163 
3631 2 -0.072551 0.255573 -0.142885 0.301658 
3257 1 0.26753 -0.0675228 -0.0924723 0.291003 
4318 2 -0.223647 -0.0741699 0.0913081 0.252698 
3883 2 0.144888 0.185524 0.0781949 0.248045 
3531 2 0.0183484 -0.0562679 -0.00728892 0.0596311 
3227 1 0.0596873 -0.117934 0.0583923 0.144501 
373 1 0.0618324 0.165847 0.0430957 0.18217 
4297 2 0.0354864 -0.0115418 -0.029808 0.04776 
3404 1 -0.00143269 -0.0768312 0.0521927 0.0928933 
398 1 -0.123256 -0.0842981 0.0781811 0.168554 
3535 2 0.0444466 0.159715 -0.0332661 0.169089 
3221 1 0.084197 0.126189 -0.208959 0.258218 
836 1 -0.0229843 -0.0751192 0.0619258 0.10003 
309 1 -0.069388 0.1991 0.0189866 0.211698 
394 1 0.011448 -0.00833747 0.10601 0.106952 
412 1 -0.0342546 0.00210393 -0.0306063 0.0459842 
1212 1 -0.204346 0.115798 0.12747 0.267236 
3573 2 -0.160688 0.112272 0.123943 0.231921 
3360 1 -0.0603772 -0.00284509 0.0418723 0.0735309 
3319 1 -0.0788664 -0.00821259 0.112661 0.137767 
3588 2 -0.146953 0.0570334 0.0367852 0.161868 
2365 1 0.0140381 0.14323 -0.0303904 0.147091 
306 1 -0.0246693 0.164045 -0.0799182 0.184137 
3093 1 -0.067989 0.0422693 0.00242455 0.0800942 
2745 1 -0.0928722 0.0236081 0.00899053 0.0962467 
355 1 -0.115934 0.0144795 0.0402979 0.123589 
3097 1 0.0715467 0.119176 0.0187017 0.140256 
4304 2 0.104875 -0.0913778 0.455488 0.476254 
228 1 -0.294882 0.156791 0.0560723 0.338649 
3324 1 -0.0702481 0.161569 -0.112614 0.209097 
951 1 -0.0523227 0.0825082 0.0241718 0.100646 
2737 1 -0.0467172 0.0679095 0.0359383 0.0899209 
2959 1 -0.106677 0.259996 -0.0832792 0.29311 
4284 2 -0.210581 0.244196 -0.0528637 0.326758 
4225 2 0.268579 0.127581 0.00785527 0.297445 
155 1 -0.102468 0.0801689 -0.00677532 0.130279 
221 1 0.158126 0.206969 0.00783138 0.260579 
716 1 0.0969734 0.0549949 -0.0134168 0.112287 
353 1 0.00702329 0.045212 0.0783867 0.0907631 
601 1 0.0286103 -0.070403 0.0569708 0.0949779 
3094 1 0.0816803 -0.0527665 0.0256686 0.100573 
3617 2 0.0247033 -0.098919 0.0239149 0.104724 
206 1 0.0349439 -0.03789 0.111116 0.122489 
71 1 0.166246 -0.0229524 -0.0304789 0.170568 
3676 2 0.134431 -0.0633686 0.125036 0.19422 
3192 1 -0.048343 -0.00573569 -0.0468021 0.0675305 
4185 2 0.104683 -0.224839 -0.0331275 0.250217 
3483 2 -0.0166784 0.129722 -0.0935942 0.160829 
763 1 -0.104194 0.0518008 0.123612 0.169763 
3561 2 0.0652968 0.0788797 -0.013761 0.10332 
3409 1 0.0562137 -0.175444 -0.100803 0.210004 
388 1 0.157568 0.100971 0.121929 0.223359 
1313 1 0.121042 0.00567547 -0.0283437 0.124446 
444 1 0.0584293 0.106163 0.0669831 0.13846 
3668 2 0.136488 0.217415 0.120663 0.283651 
838 1 0.0374829 0.07067 0.152157 0.171904 
460 1 0.215379 -0.0884319 -0.0536696 0.238932 
499 1 0.00704249 0.0494136 -0.0168088 0.0526672 
3548 2 -0.332855 -0.245298 0.0241564 0.414183 
291 1 0.0369071 -0.0644569 -0.0255726 0.0785543 
482 1 0.0670277 -0.0246905 -0.0430894 0.0834209 
1314 1 0.0700801 0.118502 0.125734 0.186448 
3672 2 0.0200686 0.15467 0.0586376 0.166625 
375 1 0.0895303 -0.0237775 0.02254 0.0953367 
94 1 0.158687 -0.159825 -0.0127825 0.225586 
3281 1 0.0140415 0.0214083 0.0993155 0.102562 
37 1 0.00898025 -0.0889322 0.0590524 0.10713 
3321 1 0.0113995 -0.217449 0.0220412 0.21886 
2961 1 0.157143 0.0248237 -0.0845528 0.180165 
3393 1 0.103928 0.115564 0.0110239 0.155812 
901 1 -0.0985196 -0.0373301 -0.0261718 0.108557 
4309 2 -0.113242 -0.189032 0.0562926 0.227433 
392 1 -0.0911535 -0.0287134 0.0860178 0.128579 
436 1 -0.0220469 -0.180698 -0.0230281 0.183489 
792 1 -0.305303 -0.0990592 0.172473 0.364376 
3293 1 -0.226858 0.174736 0.102971 0.304303 
3320 1 -0.0648084 -0.225604 0.173526 0.291905 
3095 1 -0.00423961 0.136748 0.0389018 0.142237 
318 1 -0.030125 0.13118 0.122106 0.181729 
3350 1 0.0218973 -0.0961489 0.12412 0.158524 
3314 1 -0.0540345 -0.0216912 0.0300927 0.0655424 
2861 1 0.121331 0.0384304 0.103928 0.164314 
3180 1 0.0010932 -0.0403583 0.0242198 0.0470807 
3150 1 -0.0281091 0.129607 0.0591412 0.14521 
2479 1 -0.0676061 -0.0436824 -0.0705214 0.107014 
3664 2 0.0414598 -0.117804 0.153752 0.198081 
100 1 0.214063 0.109543 -0.0387603 0.243567 
3301 1 -0.0626726 0.00300012 -0.0935016 0.112603 
3162 1 0.174442 0.11101 -0.0544077 0.213807 
4298 2 -0.098835 0.0984698 -0.0104006 0.139903 
4271 2 -0.0234462 0.129459 0.140214 0.192274 
1172 1 0.0824068 -0.141733 0.013915 0.164538 
652 1 0.0934146 -0.100972 -0.0110618 0.138 
3568 2 0.00542912 0.00499522 0.0010528 0.00745225 
3433 1 0.156288 0.0470091 -0.0466258 0.169735 
3419 1 -0.123784 0.132027 0.00846099 0.181177 
248 1 0.0733528 -0.0289554 0.205202 0.219834 
3560 2 0.0564989 -0.053708 0.0276274 0.082704 
208 1 -0.0183197 0.021095 -0.0397703 0.0486034 
1304 1 0.186306 -0.0440306 0.114453 0.223043 
917 1 -0.18151 -0.190846 0.0338829 0.265549 
107 1 -0.127095 -0.116178 0.0737306 0.187314 
325 1 0.00862823 0.0202757 0.0885444 0.0912451 
292 1 0.0230729 0.0437211 0.107116 0.117973 
3444 1 0.111764 -0.0130103 0.0491864 0.1228 
908 1 0.177333 -0.182052 0.0556076 0.260158 
3504 2 0.109888 -0.147615 0.0899862 0.204849 
423 1 0.192163 -0.0369408 0.0875399 0.21437 
502 1 -0.0176306 -0.0987039 0.0689963 0.121712 
3435 1 -0.0175658 -0.132639 0.0425513 0.1404 
430 1 -0.132858 -0.0150984 0.126122 0.18381 
439 1 0.128075 0.0459715 0.100228 0.169004 
3331 1 -0.164106 -0.00337908 0.148538 0.221372 
4182 2 -0.115847 -0.162661 0.109761 0.227874 
874 1 0.160572 -0.125878 0.174753 0.268639 
980 1 0.0319095 -0.173171 0.140846 0.225486 
810 1 -0.0250628 0.109143 0.0297006 0.115855 
3312 1 0.0573201 -0.11418 0.0328771 0.131922 
3383 1 -0.0305808 0.139364 0.0311472 0.14604 
225 1 0.0246529 -0.169865 0.0882862 0.193019 
4280 2 0.100131 0.251368 -0.0311197 0.272361 
416 1 0.00143193 -0.23448 0.184432 0.298326 
365 1 0.100175 0.0308069 0.0638423 0.122719 
3799 2 0.18678 -0.15337 -0.113953 0.267198 
2819 1 0.0729927 -0.200807 0.183196 0.281446 
382 1 -0.0630411 0.12873 0.03747 0.148154 
404 1 -0.0537759 -0.0924196 -0.083774 0.135836 
2776 1 0.0350499 0.0527644 0.128443 0.143214 
2973 1 -0.231537 -0.022224 0.0291739 0.234423 
957 1 0.0894704 -0.0901295 -0.0902107 0.155776 
795 1 0.108901 -0.0310668 0.107397 0.156073 
490 1 -0.140318 -0.0248123 0.118019 0.185023 
3266 1 0.108349 0.113461 0.0636034 0.169287 
4285 2 0.0602793 0.0209761 -0.0735518 0.0973831 
496 1 -0.013752 0.0954134 0.0936651 0.13441 
2993 1 -0.0508692 0.014235 0.0119205 0.0541517 
4256 2 -0.00923037 0.0154753 0.0549685 0.0578466 
471 1 0.0275356 0.0554187 -0.035839 0.0715114 
517 1 0.181323 -0.0314715 0.0933794 0.206369 
279 1 -0.0280308 0.332397 0.137966 0.360982 
4264 2 0.150645 -0.123383 0.0176204 0.195519 
876 1 -0.0532921 -0.0231415 -0.0121305 0.0593526 
4028 2 -0.311344 0.0590916 0.204667 0.377247 
771 1 0.0638457 0.120862 0.0437461 0.143519 
3322 1 -0.00615631 0.156305 0.0414184 0.161816 
3863 2 -0.296525 -0.106978 0.13755 0.343935 
274 1 -0.0966971 -0.083077 0.0580843 0.140092 
1091 1 -0.109997 0.025002 0.152758 0.189894 
3396 1 -0.136064 -0.0959322 0.168663 0.236989 
699 1 -0.0557973 0.142185 0.0872424 0.175901 
329 1 -0.182068 0.119645 -0.0369448 0.220971 
2545 1 -0.146814 -0.089599 -0.0560411 0.180895 
3327 1 -0.101116 -0.0666549 -0.0633605 0.136681 
3674 2 -0.10203 0.0219549 0.130838 0.167364 
1418 1 0.0988759 0.0755628 -0.0597603 0.138049 
443 1 -0.171107 0.0459885 -0.130146 0.219842 
855 1 -0.0405755 -0.0583544 -0.245333 0.255421 
3082 1 -0.0319622 -0.0651287 0.0819826 0.109474 
3476 2 -0.0545184 0.164468 0.0524391 0.18103 
2869 1 -0.0441202 -0.00744758 0.0116288 0.0462308 
4307 2 -0.0614622 0.127926 -0.013887 0.142602 
177 1 0.0993566 0.113774 0.0106806 0.151428 
363 1 -0.0511235 0.0134734 -0.00796083 0.0534651 
1450 1 -0.12377 0.118553 0.0248324 0.173177 
3559 2 -0.0417798 0.114483 -0.0225469 0.123937 
347 1 0.145066 0.0150238 -0.0352561 0.150043 
4237 2 0.0597471 -0.0907815 -0.117895 0.160344 
319 1 -0.179603 0.0240169 0.157354 0.239988 
830 1 -0.100035 0.0656611 0.146078 0.188831 
295 1 0.0377934 0.00878873 -0.0314919 0.0499733 
937 1 -0.0525006 -0.000992497 0.0493457 0.0720576 
268 1 -0.0578894 0.00482605 0.0124613 0.0594118 
854 1 -0.0372908 0.157317 0.0823044 0.18142 
442 1 -0.144142 0.0256152 0.00570389 0.146512 
875 1 0.0964568 0.0531023 0.0636703 0.127191 
501 1 0.0467337 0.0276639 0.207478 0.214468 
3378 1 -0.00608258 0.150024 0.12514 0.195459 
3291 1 0.143477 0.0229311 0.0179561 0.146404 
314 1 -0.107611 -0.0237436 0.120061 0.162968 
474 1 -0.205321 0.0241751 -0.325641 0.385725 
3070 1 0.084258 0.0436655 -0.0308572 0.099791 
964 1 -0.192123 0.096922 -0.0674603 0.225513 
793 1 -0.0800584 0.112164 0.0563231 0.148871 
3397 1 -0.177171 0.0570655 0.0613321 0.195979 
899 1 -0.10404 0.0397918 0.0463323 0.120642 
1337 1 -0.0104748 -0.0144517 0.0375794 0.0416026 
3278 1 0.0629263 -0.127759 -0.00414302 0.142475 
3544 2 -0.00305892 -0.0409026 0.0956929 0.104113 
1430 1 -0.0298349 -0.0558608 0.0785999 0.100938 
3200 1 0.0584043 0.0682196 0.0992012 0.133813 
757 1 -0.112189 0.0959265 0.135587 0.20043 
822 1 -0.114547 -0.0508668 0.2668 0.294772 
483 1 0.0201556 -0.0580184 0.0279306 0.0674723 
1289 1 -0.0674238 0.144346 0.104882 0.190741 
1354 1 -0.199758 -0.00726601 0.29101 0.353047 
3240 1 -0.216922 0.127019 0.158072 0.296944 
113 1 -0.01319 0.0936276 0.103352 0.140077 
504 1 -0.177959 0.0590998 0.131627 0.229102 
2795 1 -0.279755 0.0690158 0.308346 0.422023 
781 1 -0.0242584 -0.0849683 0.169884 0.191491 
581 1 -0.226699 0.0546649 -0.0380535 0.236281 
3541 2 -0.0246207 -0.00380138 -0.0816622 0.0853776 
786 1 0.150849 -0.118303 0.0319817 0.194355 
800 1 0.0662067 -0.189984 -0.0800174 0.216518 
367 1 0.0312922 -0.0834831 0.0569921 0.105815 
2687 1 0.0232339 -0.0162876 0.00181977 0.0284326 
3545 2 0.0198736 -0.00520367 -0.167506 0.168761 
491 1 -0.0530443 0.180324 -0.140936 0.234933 
840 1 -0.161354 -0.0281934 -0.01002 0.164105 
187 1 -0.134237 0.115135 0.242936 0.300488 
2814 1 -0.025685 0.104804 -0.0781673 0.133243 
1723 1 0.0886793 -0.102076 -0.217173 0.255827 
3264 1 0.146553 -0.0950718 0.0235294 0.176267 
440 1 -0.00458778 -0.0164609 -0.00849827 0.0190848 
431 1 0.0440158 -0.066437 -0.0638147 0.102096 
402 1 -0.021399 -0.0380765 0.374186 0.376726 
968 1 -0.0905231 0.0148959 0.163384 0.187378 
801 1 -0.0935727 -0.178822 -0.0523759 0.20851 
2656 1 -0.107646 0.141416 -0.017373 0.178572 
421 1 -0.147908 -0.0600806 -0.165566 0.229997 
4152 2 -0.15768 0.178127 0.111729 0.262822 
461 1 -0.226899 0.165218 0.0571346 0.286434 
647 1 0.0155358 0.0911868 0.105921 0.140626 
3436 1 -0.194016 0.031931 0.0764829 0.210977 
3371 1 -0.118353 0.114155 0.0407167 0.169401 
486 1 -0.0957764 0.123386 0.0568529 0.166221 
308 1 -0.0967594 -0.0849979 -0.0137754 0.129525 
307 1 0.0173572 -0.056841 0.0675774 0.0899938 
85 1 0.0989492 0.0929955 0.267734 0.300201 
4143 2 -0.227612 0.0265347 0.215245 0.314391 
2873 1 -0.0676854 0.0404753 0.155704 0.174537 
2884 1 -0.0667162 -0.0519497 0.080878 0.117009 
3339 1 -0.306902 0.117083 0.172185 0.37087 
3487 2 0.0139317 0.0111332 0.146768 0.147847 
819 1 0.0210301 0.0284064 0.0445573 0.056873 
1254 1 -0.0377339 0.147972 -0.080305 0.172536 
3380 1 0.22359 -0.150551 0.16151 0.314235 
4154 2 -0.0431178 0.131157 -0.127059 0.187631 
419 1 0.291683 0.0460743 0.153013 0.332588 
3434 1 -0.0210144 -0.0411535 -0.0947046 0.105376 
4098 2 -0.0646995 0.030634 0.0732177 0.102398 
3678 2 -0.134992 0.170084 0.121525 0.248837 
128 1 0.0425232 0.0379901 0.0139621 0.0587062 
907 1 0.0274274 -0.0479038 0.0149847 0.0571977 
1641 1 0.0927355 0.104633 -0.0884146 0.165424 
572 1 -0.0558452 -0.105724 0.176839 0.213468 
1300 1 0.0382295 -0.0984994 -0.0534064 0.118389 
1934 1 0.126371 -0.00730932 -0.00484055 0.126675 
891 1 -0.19806 -0.069716 0.0643855 0.219621 
3778 2 -0.0490488 -0.17402 -0.129974 0.22267 
1269 1 -0.189711 -0.0936164 0.271281 0.344017 
1535 1 0.112444 -0.115345 0.0380413 0.165515 
573 1 0.0211924 -0.0598884 0.131226 0.145794 
3844 2 0.0469479 -0.0198772 -0.0516745 0.0725911 
631 1 0.157138 0.0170028 0.0909219 0.182341 
606 1 0.0719277 -0.017819 0.160229 0.176535 
3600 2 0.120057 -0.066006 -0.0297075 0.140189 
627 1 0.0195097 -0.121272 -0.0310922 0.126706 
1474 1 -0.0696302 0.0468037 0.101743 0.131874 
1569 1 -0.0784323 -0.224774 0.0075841 0.238186 
63 1 0.0523491 -0.0351757 0.177618 0.188484 
577 1 -0.132533 0.000744108 0.189456 0.231212 
565 1 0.110049 0.0257012 0.112022 0.159124 
3616 2 0.11289 -0.0113796 0.067466 0.132005 
3418 1 0.0448781 -0.115824 0.0207927 0.125943 
4176 2 -0.0518912 0.0376863 0.118199 0.134477 
2057 1 0.0394765 0.0214793 0.165131 0.171138 
69 1 -0.0271074 -0.0784241 0.277351 0.289497 
865 1 0.191899 -0.084887 0.104172 0.234271 
4319 2 -0.0023071 -0.0120024 0.151787 0.152278 