ITEM: TIMESTEP
34000
ITEM: NUMBER OF ATOMS
4320
ITEM: BOX BOUNDS pp pp pp
0.0000000000000000e+00 1.9309999999999999e+01
0.0000000000000000e+00 1.9309999999999999e+01
0.0000000000000000e+00 9.6549999999999994e+00
ITEM: ATOMS id type c_displacement[1] c_displacement[2] c_displacement[3] c_displacement[4] 
381 1 -0.16079 -0.195268 0.0250171 0.254183 
327 1 0.121597 -0.0850908 0.115527 0.188077 
728 1 0.222456 -0.106592 0.0411659 0.250087 
303 1 0.012678 -0.211917 -0.74864 0.778159 
2478 1 0.322379 -0.594346 0.492915 0.836744 
1888 1 -0.615628 -0.156518 0.0326931 0.636054 
623 1 -0.0863466 -0.0580755 -0.120679 0.159348 
2945 1 0.098546 0.346774 -0.0253235 0.361392 
3230 1 0.16317 -0.0372219 0.0267136 0.16948 
3651 2 0.741439 -0.302102 -0.468956 0.927856 
400 1 -0.103676 0.110436 -0.0281117 0.154062 
4053 2 0.258776 -0.173093 -0.137155 0.340203 
677 1 -0.110646 -0.181583 0.138582 0.25381 
727 1 -0.201138 -0.139978 0.154255 0.28956 
171 1 0.400751 -1.04085 -0.0235739 1.11558 
87 1 0.279297 0.411138 -0.0598455 0.500622 
688 1 0.357724 -0.231549 0.101771 0.438108 
58 1 0.131511 -0.0615505 -0.400993 0.426473 
18 1 0.139719 0.470686 -0.234936 0.544299 
3514 2 0.407387 -0.311224 0.386011 0.641739 
110 1 -0.080002 -0.177415 -0.137838 0.238486 
190 1 -0.346692 0.25683 -0.284296 0.516702 
3618 2 0.112479 0.0322692 -0.146417 0.187432 
103 1 0.0388875 0.181111 -0.168582 0.250466 
106 1 -0.204332 -0.127975 -0.148276 0.283046 
217 1 -0.137831 -0.00547148 -0.110387 0.176671 
775 1 0.0378217 0.0223431 -0.161982 0.167833 
3627 2 -0.0415187 0.0421204 -0.133296 0.145828 
608 1 -0.0908135 0.0603697 -0.0158563 0.110195 
180 1 -0.162206 0.0365388 0.108867 0.198741 
823 1 0.0435399 -0.00422486 -0.174713 0.180106 
3118 1 -0.145089 0.150915 -0.138546 0.25104 
3478 2 0.0881212 0.0602711 0.195938 0.223136 
562 1 -0.148464 -0.0633069 -0.169244 0.233865 
70 1 -0.100279 0.109644 0.132777 0.199268 
121 1 -0.0700053 -0.0330773 -0.135966 0.156466 
1118 1 -0.151877 -0.186829 -0.0464259 0.245208 
4214 2 0.0497152 -0.0107805 0.155346 0.163463 
2939 1 -0.172764 -0.0198605 0.24255 0.298449 
3251 1 -0.201972 -0.0196875 -0.354104 0.40813 
226 1 0.0418843 -0.0920399 0.137142 0.170392 
532 1 0.0634333 -0.0756127 0.144912 0.17533 
3578 2 -0.143306 -0.135926 0.27433 0.338038 
473 1 0.0286774 -0.112354 -0.16483 0.201531 
246 1 -0.285084 0.118234 0.128948 0.334484 
155 1 -0.362549 -0.129698 -0.0525246 0.388616 
817 1 -0.19128 -0.168418 0.232619 0.345058 
289 1 -0.0388924 -0.166095 0.211153 0.271452 
4071 2 0.113478 0.0702489 0.606415 0.620928 
2838 1 0.298717 0.224753 0.0250233 0.374663 
536 1 -0.0826821 -0.114978 0.0757557 0.160609 
894 1 -0.0952344 0.0327659 -0.142425 0.174437 
351 1 0.0383732 0.0390703 0.162421 0.171405 
3135 1 -0.156018 0.439807 -0.32205 0.566999 
4034 2 0.25427 0.492798 0.34297 0.652021 
2768 1 0.0589021 -0.163568 -0.122388 0.212609 
10 1 0.320239 -0.384389 -0.521764 0.722873 
484 1 0.201672 0.529425 0.457737 0.728344 
1415 1 0.0197829 -0.209439 0.184649 0.279913 
527 1 -0.0134579 -0.147054 0.066117 0.161795 
3002 1 -0.0683134 0.153154 -0.0273204 0.169909 
712 1 -0.0269864 -0.268406 0.0195557 0.270467 
3469 2 -0.115535 -0.0657234 -0.0537874 0.143391 
718 1 -0.0461274 0.0719376 0.112392 0.14119 
96 1 0.0283573 0.0739589 -0.0968237 0.125095 
233 1 -0.166988 0.251029 0.0865448 0.313672 
4177 2 0.368449 -0.572513 0.359057 0.769706 
93 1 -0.0296737 0.131953 -0.0160483 0.136198 
569 1 0.199712 0.265019 -0.00843246 0.331951 
639 1 -0.328246 0.0699995 0.0183625 0.336129 
3353 1 -0.215916 -0.298923 -0.0233072 0.369484 
21 1 -0.115555 -0.0611924 0.0679189 0.147345 
167 1 -0.158313 0.0746729 0.0593821 0.184839 
725 1 0.0268375 0.0970741 -0.020289 0.102739 
2596 1 0.166412 -0.00307987 -0.0460395 0.17269 
50 1 -0.223649 -0.315168 -0.0231302 0.38715 
2495 1 0.0881769 0.052699 -0.0511352 0.114748 
28 1 0.0437119 -0.0259998 -0.0951522 0.107892 
3055 1 0.120904 -0.113979 -0.0138338 0.166734 
12 1 0.125886 0.0856537 -0.239304 0.283637 
738 1 0.122293 -0.358254 -0.0315261 0.379862 
232 1 -0.248978 0.058647 0.0108612 0.256022 
65 1 -0.010164 -0.034481 0.0708598 0.0794566 
210 1 0.0302409 -0.216579 0.198843 0.295566 
4170 2 -0.187583 0.116302 -0.0131022 0.2211 
2453 1 0.131194 -0.143586 0.0871856 0.213143 
3167 1 0.133009 -0.231737 0.0525281 0.27231 
23 1 0.0421903 0.0163736 -0.377665 0.380367 
390 1 0.0377475 -0.14604 0.208732 0.25753 
988 1 0.0640169 0.0010002 -0.270141 0.277625 
339 1 -0.0339564 0.287451 0.097189 0.30533 
118 1 0.252886 0.107213 -0.106163 0.294476 
203 1 0.107707 0.181921 -0.0696036 0.222577 
3582 2 -0.0970744 0.226715 0.158649 0.293245 
3632 2 -0.122409 0.132347 0.0533707 0.188011 
231 1 -0.0892573 -0.094229 0.258077 0.288876 
323 1 0.197256 0.253646 0.0381387 0.323575 
3244 1 -0.045445 0.0885836 -0.18606 0.211023 
3916 2 -0.439961 -0.163783 0.0231384 0.470028 
553 1 -0.398446 0.232096 -0.460113 0.651408 
2960 1 -0.333491 -0.0420255 -0.211857 0.397324 
2735 1 -0.0708837 -0.0373662 0.0194211 0.0824494 
29 1 -0.153564 0.153786 -0.16346 0.27194 
753 1 -0.0152454 -0.313666 0.0406401 0.316655 
3467 2 -0.388616 0.279375 0.399813 0.623638 
4187 2 -0.133384 -0.321977 -0.442951 0.563619 
298 1 0.107105 0.0507899 -0.073734 0.139598 
4228 2 -0.115389 -0.0122971 -0.257017 0.282 
437 1 -0.00467175 0.156432 -0.217358 0.267838 
53 1 0.00631713 -0.0412267 -0.206968 0.211129 
593 1 -0.572152 0.17517 0.410735 0.725773 
609 1 0.150143 -0.103574 -0.238515 0.300266 
3040 1 -0.672181 -0.0962875 -0.112993 0.688379 
610 1 -0.147859 -0.0605672 0.0625175 0.171578 
89 1 0.0232035 -0.00154031 0.0460222 0.0515637 
3149 1 -0.0170644 0.0375462 -0.00097142 0.0412535 
550 1 0.0458861 0.0528533 0.245018 0.254819 
147 1 0.0198107 0.0616989 0.0641114 0.0911564 
821 1 -0.575558 0.172207 -0.314081 0.677915 
3554 2 -0.00892114 -0.0198411 -0.184533 0.185811 
2936 1 0.212662 0.163207 -0.003782 0.268096 
3152 1 0.106621 -0.038134 0.0421404 0.120823 
3786 2 0.0737845 0.107349 0.05696 0.142171 
5 1 0.0079009 0.0707023 0.0247516 0.0753252 
2591 1 0.0524433 0.0995889 -0.0876956 0.142684 
3232 1 0.0125061 0.183702 0.0983207 0.208733 
1215 1 0.0966219 -0.136589 -0.131515 0.212811 
859 1 0.29708 0.0908905 -0.0847768 0.322032 
2461 1 -0.0834713 0.17253 -0.128575 0.230793 
59 1 0.00748672 -0.00687775 0.0297454 0.0314347 
43 1 0.0636759 0.00101349 -0.0249833 0.0684091 
3743 2 -0.0302544 0.150168 -0.0565191 0.163279 
3730 2 0.0382911 -0.158183 -0.274325 0.318971 
151 1 0.124713 -0.0359529 0.102025 0.165091 
3023 1 -0.132871 0.530619 -0.260599 0.605906 
3199 1 0.116479 0.0892064 -0.0504572 0.155148 
1454 1 -0.158267 0.164199 -0.099629 0.248869 
3346 1 0.1591 0.238117 -0.0331278 0.288288 
424 1 0.0634423 0.153543 -0.0806882 0.184692 
3611 2 0.048379 -0.0068872 -0.00439562 0.049064 
3006 1 0.203005 0.208641 0.0338746 0.293069 
4289 2 -0.0759338 0.249351 0.0978281 0.27841 
3460 2 0.134016 0.0850615 -0.0669074 0.172257 
3586 2 -0.00881572 0.178995 0.0264874 0.181159 
559 1 -0.195932 0.0104842 -0.0164265 0.196899 
197 1 -0.151747 0.654487 0.138409 0.685957 
7 1 0.00885259 -0.396973 0.0980879 0.409008 
3189 1 -0.316463 0.372355 -0.222553 0.536961 
2500 1 -0.0129257 -0.0231568 -0.0565127 0.0624259 
3188 1 -0.0284077 0.364943 -0.0670142 0.372131 
691 1 -0.00428143 -0.55392 0.0580901 0.556974 
529 1 -0.336925 -0.309131 -0.129792 0.475318 
140 1 -0.212868 -0.229465 0.134447 0.340651 
3464 2 -0.431016 -0.673115 0.0648759 0.801914 
3679 2 -0.756429 -0.4248 -0.0945516 0.872685 
174 1 -0.0878009 -0.00277087 -0.169702 0.19109 
3196 1 -0.144965 -0.35876 -0.672729 0.776072 
825 1 0.234678 0.122731 -0.00390978 0.264862 
1480 1 -0.351663 -0.20416 0.247382 0.475969 
2968 1 0.0289257 -0.217196 0.0796728 0.233149 
1331 1 -0.487504 -0.117578 0.208586 0.543132 
133 1 0.0794367 0.0477814 -0.0685931 0.115318 
98 1 0.022952 -0.322443 0.0569417 0.328236 
354 1 0.102892 -0.0188224 0.0599028 0.120538 
40 1 0.0262353 -0.0908765 0.0158636 0.0959088 
3041 1 -0.0721455 -0.238081 0.0155182 0.249255 
1130 1 -0.0483343 -0.152375 -0.0421426 0.165319 
604 1 0.165014 0.24697 -0.209847 0.363674 
721 1 0.0880355 -0.0226749 -0.427581 0.437138 
4094 2 0.373583 -0.289965 -0.76764 0.901619 
3164 1 0.0990811 0.167816 -0.0523987 0.201804 
241 1 -0.137064 -0.00536955 -0.116242 0.179799 
95 1 -0.0585737 -0.0852858 0.12871 0.165139 
3408 1 -0.0578698 0.0233677 0.143853 0.156808 
154 1 0.021758 0.0435301 -0.0449942 0.0662779 
563 1 -0.0673334 0.131707 -0.0519479 0.156777 
64 1 -0.0165337 -0.100752 -0.243178 0.263742 
193 1 0.243962 0.18818 -0.063015 0.314484 
2996 1 0.0765559 0.0693696 -0.270453 0.289513 
4212 2 -0.165189 0.0935992 -0.0737138 0.203671 
44 1 0.19043 -0.0153961 -0.122883 0.227158 
3279 1 -0.020908 -0.12594 -0.0113982 0.128172 
178 1 0.0876989 0.0239267 -0.178047 0.199911 
80 1 -0.126994 -0.132588 0.0198933 0.18467 
176 1 0.28343 0.255516 -0.0316003 0.382909 
330 1 -0.126615 0.331144 0.0966712 0.367468 
600 1 -0.119051 0.128484 0.0559856 0.18389 
338 1 -0.0162841 -0.165833 -0.118597 0.204526 
4101 2 0.0752462 0.0859307 0.156703 0.193912 
3841 2 -0.0148793 0.00104559 0.0252087 0.0292911 
3518 2 -0.119595 0.163149 0.015919 0.202914 
3608 2 0.208582 0.0831672 0.0468818 0.229393 
215 1 0.0122277 -0.000848644 -0.0701374 0.0712004 
446 1 0.0570479 0.049234 0.244029 0.255399 
4217 2 -0.298201 -0.116918 0.111397 0.339121 
479 1 -0.124455 0.00670691 0.113593 0.168634 
3335 1 -0.104597 -0.0735801 -0.0220172 0.129766 
1457 1 -0.0495424 -0.121945 -0.0649066 0.146758 
3037 1 0.0670995 0.187107 -0.0643459 0.20893 
4253 2 0.133823 -0.0705876 -0.0385244 0.156126 
387 1 0.0444426 0.0906987 0.00683289 0.101233 
3736 2 0.0519674 0.422275 0.144304 0.449267 
78 1 0.204891 0.0487783 0.0275618 0.212413 
717 1 -0.0322814 -0.106016 0.204182 0.232318 
3130 1 -0.0278176 -0.0983292 -0.193148 0.218514 
508 1 -0.168126 -0.181897 0.000223762 0.247695 
3537 2 0.164245 0.0142326 -0.0872646 0.186532 
747 1 -0.0941067 -0.0483271 0.00387114 0.105861 
497 1 0.0704818 -0.122487 0.137391 0.197096 
958 1 -0.0563912 -0.206992 0.0861759 0.231197 
4163 2 -0.00188117 -0.105174 0.0919889 0.139739 
3003 1 -0.120491 0.0264863 -0.0418354 0.130268 
4204 2 -0.111027 -0.0484458 0.0983022 0.156004 
86 1 0.416575 0.00698555 -0.0220949 0.417219 
759 1 -0.0607569 -0.0864616 -0.106655 0.150141 
3411 1 -0.105141 0.0830203 0.177245 0.222177 
835 1 -0.406626 0.2068 -0.113766 0.470163 
3057 1 0.316291 0.0514115 0.0128975 0.320701 
312 1 0.582937 0.147453 -0.476976 0.767505 
3620 2 -0.0282714 0.68423 0.0860479 0.690199 
704 1 0.02457 0.415247 -0.274625 0.49845 
157 1 0.035362 0.00400448 -0.00418738 0.0358336 
54 1 0.0224853 -0.0793441 -0.577374 0.583234 
493 1 -0.0558203 0.319876 -0.185931 0.374175 
3599 2 -0.338819 0.0867955 -0.210881 0.408415 
204 1 -0.0442109 0.133176 -0.139004 0.197516 
3096 1 -0.000550065 0.0702882 -0.0546994 0.0890661 
67 1 0.197577 -0.0650121 -0.138514 0.249898 
2988 1 0.0230511 0.125841 -0.247975 0.279032 
3030 1 -0.193597 0.284629 -0.153556 0.376926 
674 1 0.0270337 0.0378599 -0.27701 0.280889 
4050 2 0.108769 0.214737 -0.269647 0.361458 
540 1 -0.00706437 0.14437 -0.234599 0.275553 
2004 1 -0.216886 -0.0789431 0.0747412 0.242606 
1036 1 0.0843335 0.0146277 -0.0846337 0.12037 
3216 1 0.105867 0.154062 -0.190609 0.266973 
3479 2 0.06625 0.613896 -0.041873 0.618879 
234 1 0.0349641 0.05817 -0.106008 0.125872 
3369 1 0.00788814 0.0361106 0.143033 0.147731 
3607 2 0.0744914 0.0544556 -0.118845 0.150461 
3139 1 0.0400743 0.116348 0.0916487 0.153435 
644 1 -0.196893 0.0652092 0.110791 0.235146 
1278 1 0.110037 0.0135077 -0.114512 0.159386 
2934 1 0.0395485 0.0576112 -0.147725 0.163419 
4269 2 -0.164087 0.229346 0.263149 0.385709 
4089 2 0.157261 0.215645 0.0961999 0.283704 
214 1 0.101522 0.0264472 0.074583 0.12872 
640 1 -0.0473831 0.123601 0.225151 0.261181 
199 1 0.0993611 -0.109461 -0.0408523 0.153373 
245 1 -0.0740555 -0.0261236 0.108545 0.133973 
2758 1 -0.182485 0.202486 0.163886 0.318056 
3056 1 0.0587084 -0.000709296 0.0030297 0.0587908 
3468 2 -0.139229 -0.0343232 0.138434 0.199316 
143 1 0.168347 0.0732152 0.0818362 0.200993 
920 1 -0.0410433 0.0555325 -0.0809235 0.106381 
3394 1 -0.0275924 -0.0625816 -0.0472451 0.0831258 
257 1 -0.0577801 0.0562433 -0.051695 0.0957821 
254 1 0.0765442 0.128531 -0.235474 0.278975 
2684 1 -0.434643 0.118768 -0.293704 0.53785 
1179 1 0.191844 0.168604 -0.200214 0.324526 
181 1 -0.0629954 -0.0913964 0.0860654 0.14046 
46 1 0.0204622 -0.186009 -0.0571962 0.195677 
3603 2 0.100762 -0.30816 0.128857 0.348883 
3211 1 0.177617 0.00165607 -0.0578876 0.186819 
580 1 -0.000208553 -0.00711507 0.231338 0.231447 
3512 2 -0.0751554 0.0236511 0.0203347 0.0813708 
949 1 -0.0104923 0.0735954 -0.0613253 0.0963699 
240 1 0.168845 0.391107 -0.350105 0.551404 
135 1 -0.087341 -0.209595 -0.13365 0.263479 
66 1 0.0876829 -0.177349 -0.695142 0.722747 
3701 2 0.169386 0.0408319 -0.0313765 0.17704 
3513 2 -0.104856 -0.204816 -0.684964 0.722579 
587 1 -0.0560041 -0.0116977 0.095035 0.110928 
2926 1 -0.176102 -0.0623393 0.152532 0.241172 
134 1 0.0671436 0.186824 0.0910332 0.2184 
191 1 0.0267345 0.0608257 0.036258 0.0756912 
195 1 -0.0248931 0.0647494 0.00501625 0.0695508 
685 1 -0.0951865 0.137263 0.038589 0.171437 
3092 1 -0.0734404 0.0418732 -0.00506089 0.0846904 
4195 2 -0.153942 -0.0113163 -0.206142 0.257528 
602 1 -0.259129 0.118799 -0.036075 0.287337 
2995 1 -0.108873 -0.133353 -0.174186 0.244902 
1102 1 -0.00489436 0.315686 -0.437202 0.539284 
3491 2 -0.365274 0.366581 -0.431451 0.673763 
742 1 -0.047842 -0.0431345 -0.161013 0.17342 
182 1 -0.00966994 0.00571504 -0.123347 0.123858 
4173 2 -0.0153874 0.068408 -0.187422 0.200108 
2950 1 -0.0479423 -0.0448051 -0.100734 0.120222 
6 1 -0.21494 0.146565 -0.103949 0.280153 
427 1 0.00614488 0.0866485 -0.0941961 0.128135 
690 1 0.014488 0.050334 -0.0967805 0.110045 
1133 1 -0.0805575 -0.336918 0.0586604 0.351346 
2977 1 0.0227243 0.0058067 0.0867186 0.0898344 
902 1 0.0692355 0.0450981 -0.0705 0.108617 
710 1 -0.0490967 -0.0856062 -0.102883 0.142562 
3115 1 -0.227863 0.163513 0.0303677 0.2821 
2994 1 0.0191243 -0.0541604 -0.0288025 0.0642548 
2981 1 -0.0369721 0.075433 -0.208831 0.225095 
2931 1 -0.151661 0.104944 0.126931 0.223888 
3078 1 0.0726063 0.107616 -0.0376708 0.135174 
3007 1 -0.0491419 -0.0124014 0.251331 0.256391 
205 1 -0.330857 0.0535288 0.0361788 0.337106 
694 1 -0.212237 0.0993208 0.110788 0.259197 
861 1 -0.223524 0.0810297 0.0340994 0.240191 
3549 2 -0.240899 -0.101688 -0.174605 0.314419 
3401 1 -0.00304027 -0.056061 0.116169 0.129024 
966 1 -0.115689 0.0291957 0.243569 0.271223 
1449 1 -0.171061 -0.206581 0.193881 0.33095 
3013 1 0.677004 0.232645 -0.437711 0.839076 
389 1 0.20748 -0.0574601 -0.0203893 0.216253 
3808 2 0.0706776 0.0529557 0.0566362 0.104916 
3341 1 -0.230175 0.163749 -0.0172728 0.283006 
512 1 -0.0695335 0.0677606 0.0034561 0.0971511 
300 1 -0.0829711 0.0705348 0.124745 0.165592 
393 1 -0.0252973 0.0625842 0.00248312 0.0675493 
2740 1 0.0594979 0.202725 -0.0105216 0.211538 
286 1 -0.11935 0.1272 0.0214272 0.175736 
886 1 -0.0624846 0.0943063 0.136946 0.17763 
3197 1 -0.120328 0.0899495 0.0452138 0.156889 
3546 2 -0.60963 -0.23065 -0.566896 0.86384 
4006 2 -0.0229073 0.166818 0.0837236 0.18805 
277 1 -0.102364 -0.165759 0.00331788 0.194847 
364 1 -0.243649 0.0430183 0.0579564 0.254115 
1367 1 -0.15273 0.0288588 0.0409454 0.160735 
411 1 -0.172965 0.165766 0.0411977 0.24309 
100 1 0.175264 0.0211728 -0.0832342 0.195176 
3094 1 0.0624958 0.0511408 -0.028589 0.0856647 
4154 2 -0.180901 0.29463 -0.00733141 0.345812 
2732 1 -0.0411651 -0.0660511 0.0983699 0.125435 
3389 1 -0.127096 -0.0985449 0.0542945 0.169742 
357 1 -0.268428 0.0526922 0.0650777 0.281185 
362 1 -0.0897695 0.0501956 0.0292951 0.106941 
478 1 -0.0758342 0.104429 0.0717502 0.147663 
4159 2 -0.136928 -0.0106563 0.207204 0.248589 
3612 2 -0.276695 0.139809 -0.0624155 0.316232 
1145 1 0.0222925 0.105682 0.111047 0.15491 
2479 1 -0.124025 0.262633 -0.175393 0.339295 
4239 2 0.591297 1.18591 -0.46534 1.40448 
780 1 -0.199996 0.110423 -0.227303 0.322271 
924 1 0.168453 -0.233199 0.221627 0.363148 
2710 1 0.0244098 0.270649 -0.461201 0.535307 
3313 1 0.0286646 0.0922786 -0.294598 0.31004 
3588 2 0.172449 -1.05355 -0.892908 1.39176 
287 1 -0.191971 -0.0306074 -0.0209377 0.19552 
439 1 -0.224845 0.126676 -0.209258 0.332251 
1354 1 -0.0178513 -0.366083 -0.0178769 0.366953 
92 1 -0.30067 -0.758201 -0.123918 0.825001 
2873 1 0.200712 -0.55335 0.382784 0.702143 
3333 1 -0.00923827 0.0676182 -0.246675 0.255942 
3249 1 -0.0703405 0.136972 -0.155833 0.219073 
3379 1 0.082484 -0.0570852 0.247875 0.267403 
903 1 0.0514935 -0.448172 -0.0301895 0.45213 
221 1 -0.21011 0.123901 0.0134833 0.244293 
3526 2 -0.0456209 -0.115415 -0.326422 0.349218 
1077 1 -0.0323088 0.0654216 0.0299264 0.0788634 
3180 1 0.259621 -0.192202 0.36775 0.489473 
462 1 -0.0304694 -0.0343576 0.183329 0.188993 
2966 1 0.281447 -0.0287076 0.0399035 0.285708 
3022 1 0.0677508 0.0871164 -0.0256392 0.1133 
750 1 0.150088 0.168852 0.0334556 0.228378 
3162 1 -0.0419825 0.11667 -0.101875 0.160478 
449 1 0.201288 0.00732645 -0.0537962 0.208481 
3095 1 -0.312899 0.0819743 -0.0535105 0.327855 
160 1 -0.124658 0.138919 -0.0366382 0.190212 
355 1 0.144581 -0.0757677 0.558328 0.5817 
3393 1 -0.0899054 0.128239 0.0855002 0.178433 
3209 1 0.077813 -0.0767527 -0.216669 0.242675 
3409 1 -0.0019459 -0.0913645 0.0914712 0.129299 
3647 2 -0.119282 0.0747515 -0.0108592 0.141187 
2890 1 0.0155261 0.0356154 -0.0485419 0.0621758 
1285 1 0.0614848 0.213186 0.220427 0.312757 
943 1 0.125304 -0.00709646 0.0530725 0.136265 
3305 1 0.062905 0.133072 -0.0144925 0.147903 
4318 2 -0.229952 0.108691 0.255116 0.360244 
356 1 -0.04973 0.00314417 0.000545592 0.0498323 
3404 1 0.0209245 -0.0944663 0.0248581 0.0998982 
3883 2 0.00113552 0.138392 0.0381878 0.143568 
3227 1 -0.0552496 -0.112732 0.102318 0.161957 
373 1 -0.106105 0.00810445 0.078366 0.132156 
4297 2 -0.111078 -0.00444307 0.0843335 0.139535 
398 1 -0.0600078 -0.0676362 0.0217957 0.0930088 
3531 2 -0.117216 0.000182712 -0.0282486 0.120572 
3303 1 0.0840898 0.0821905 -0.0496177 0.127626 
353 1 0.0912823 -0.0383686 0.0387315 0.106324 
2696 1 0.0497164 0.00228628 0.00579672 0.0501054 
309 1 0.0488113 0.18547 -0.053848 0.199202 
3221 1 -0.128508 0.0293082 0.14669 0.197208 
394 1 0.127048 0.0246788 0.0136691 0.130143 
412 1 -0.0566098 0.020079 0.0227476 0.0642284 
836 1 -0.039033 -0.0613304 0.272583 0.282111 
3573 2 0.00313869 -0.126925 0.0544067 0.13813 
306 1 -0.194959 0.041255 -0.564103 0.598267 
2365 1 -0.0840164 0.213248 -0.345204 0.414366 
3360 1 0.0901813 0.215507 0.0436761 0.237663 
3319 1 0.0405259 -0.448044 -0.098912 0.460618 
3093 1 -0.263325 0.193831 -0.307045 0.448539 
3097 1 -0.0194407 -0.047941 -0.389906 0.393323 
3324 1 0.302368 -0.373074 0.0621778 0.484228 
614 1 0.244279 -0.0164159 0.106712 0.267076 
951 1 0.0130846 -0.425725 -0.18026 0.4625 
2745 1 0.146038 0.06567 0.475311 0.501558 
2961 1 -0.501731 -0.0822165 -0.293085 0.586849 
2861 1 -0.819324 0.736342 -1.10862 1.56286 
228 1 0.214909 -0.321321 0.15693 0.417205 
3483 2 -0.0196235 0.0581161 0.0334092 0.069848 
2737 1 0.117681 -0.350296 0.143917 0.396571 
2959 1 0.460676 -0.343703 0.149323 0.593845 
4284 2 -0.0762956 0.619364 0.591799 0.860034 
3337 1 0.600137 -0.128877 0.0699098 0.617787 
3392 1 0.0398968 0.108789 0.0424222 0.123395 
763 1 0.170321 0.119901 0.212607 0.297636 
601 1 0.156846 0.296596 0.0807954 0.345105 
3617 2 0.176689 -0.00232181 0.0609652 0.186926 
206 1 0.0847348 0.078726 0.0729553 0.136749 
71 1 0.140745 -0.0312539 -0.00311126 0.144207 
716 1 0.2529 0.0508334 -0.0882294 0.27263 
4185 2 0.124002 0.00192007 -0.141413 0.18809 
3561 2 0.0366641 -0.0370506 0.0143793 0.0540719 
626 1 0.132971 -0.150838 -0.0695064 0.212755 
1313 1 0.129172 -0.0104551 -0.0557851 0.141091 
3676 2 0.275775 0.00019949 0.0491109 0.280114 
444 1 0.00489168 0.114288 0.102751 0.153764 
388 1 0.0266459 -0.0206249 0.101524 0.10697 
3668 2 0.0514323 0.105638 0.0677624 0.135633 
838 1 -0.133764 0.162263 0.10612 0.23555 
460 1 0.0385976 -0.153462 0.0635982 0.170543 
499 1 0.0862445 0.0542846 0.0255455 0.10506 
1324 1 -0.0130165 -0.00777731 0.0963875 0.0975729 
3548 2 -0.25734 0.223904 -0.0481488 0.344493 
291 1 -0.0560611 0.104623 0.110997 0.162508 
482 1 0.0223191 -0.0757794 -0.131616 0.153504 
1314 1 -0.00597833 0.0254743 -0.015204 0.0302628 
3672 2 -0.00844425 0.0683444 0.133898 0.150569 
375 1 0.175454 0.156914 -0.000831539 0.235386 
94 1 -0.277631 0.328401 -0.0495276 0.432873 
37 1 0.127674 -0.251119 0.0631407 0.2887 
4309 2 -0.139843 -0.0668783 0.0545953 0.164346 
4257 2 0.494822 0.375038 -0.0838493 0.626524 
3314 1 0.0356863 -0.271848 0.0438477 0.277664 
4116 2 -0.279446 -0.242225 0.124902 0.390338 
4014 2 -0.171573 -0.0773794 -0.17468 0.256784 
1212 1 -0.117623 0.00449851 0.205983 0.237243 
392 1 0.0411068 0.00907017 0.103865 0.112071 
901 1 0.0683953 -0.161179 -0.00522218 0.175168 
436 1 0.0785698 0.0471962 0.0412797 0.100522 
792 1 -0.0108301 -0.36525 -0.0309004 0.366715 
3293 1 -0.112654 0.421955 0.220275 0.48914 
3150 1 0.435613 0.564652 -0.565613 0.910225 
318 1 0.102162 0.512423 0.0175648 0.522803 
3320 1 0.0705383 -0.0976296 0.155677 0.196831 
3785 2 -0.206403 0.10735 -0.252543 0.343372 
635 1 -0.230726 -0.0349122 -0.0364819 0.236187 
3658 2 -0.0483235 0.226449 0.230358 0.326618 
433 1 -0.0124007 -0.161855 -0.0872825 0.184307 
3281 1 -0.286284 -0.0625501 0.136229 0.323155 
3535 2 0.126549 0.0468288 -0.0635714 0.149161 
4271 2 0.102821 0.243762 0.0895973 0.27932 
1172 1 0.237731 -0.0758037 0.0290135 0.251205 
652 1 0.141691 -0.0889211 0.0124156 0.167742 
3568 2 0.125607 0.0250839 -0.00933084 0.128426 
3433 1 0.102 0.062494 -0.0913104 0.150489 
3560 2 0.121241 0.0821593 -0.0237608 0.148372 
3419 1 -0.00184708 0.0667163 0.0510815 0.0840464 
248 1 0.209707 -0.0248658 0.0911062 0.22999 
1304 1 0.290747 -0.0836356 0.0837857 0.313924 
490 1 0.0380918 -0.033033 -0.213857 0.219721 
3082 1 0.0785676 -0.0324129 0.0746865 0.113144 
325 1 0.0294053 0.0362337 0.0082435 0.0473868 
292 1 0.0904916 0.0424137 0.0657326 0.119618 
3444 1 0.166018 -0.041102 0.0753908 0.186909 
908 1 0.197051 -0.0590796 0.0964785 0.227217 
3504 2 0.267469 -0.119358 0.103834 0.310754 
423 1 0.0342835 0.0494381 0.0982254 0.115186 
491 1 -0.126602 -0.0623339 -0.0132817 0.141739 
4182 2 0.158016 -0.153962 -0.129738 0.25594 
3331 1 0.118958 0.0101451 -0.171457 0.208929 
874 1 0.0500613 -0.295563 0.215429 0.369152 
980 1 -0.0675457 -0.107412 0.189538 0.228089 
225 1 -0.0708665 -0.170717 0.262667 0.321186 
810 1 0.125975 -0.12703 0.0627069 0.189574 
3482 2 0.0514832 -0.0583065 -0.149565 0.168582 
3223 1 -0.157386 -0.0054038 -0.216344 0.26759 
3420 1 -0.0871846 -0.0822848 0.0721663 0.139928 
647 1 0.208137 0.218012 -0.0458347 0.304879 
307 1 -0.151644 0.0125704 -0.243021 0.286728 
4280 2 0.333834 0.454214 -0.339395 0.657985 
416 1 0.0895178 -0.201407 0.167424 0.276784 
365 1 0.0929071 -0.239156 0.0238612 0.257676 
3799 2 -0.083283 -0.260257 -0.0202039 0.274004 
2819 1 -0.0794407 -0.0427959 0.0936867 0.130075 
382 1 -0.102464 0.120993 -0.352772 0.386763 
295 1 0.0274716 -0.147182 -0.351898 0.382425 
3266 1 0.47726 0.175163 -0.031961 0.509392 
3291 1 0.156047 -0.273042 -0.178708 0.361717 
2776 1 -0.0833934 -0.188048 0.00971907 0.20594 
957 1 0.150054 -0.202831 -0.459735 0.524417 
795 1 0.116965 -0.314574 0.0287567 0.336845 
2973 1 -0.20624 0.187019 0.161488 0.321853 
4256 2 -0.0705789 -0.532703 0.0718869 0.542145 
474 1 -0.081736 -0.0799048 -0.473117 0.486729 
496 1 0.154572 -0.0777139 0.0356347 0.17664 
2993 1 -0.231617 0.263732 -0.0133571 0.351255 
517 1 0.0492364 0.117945 -0.177768 0.218945 
279 1 -0.00142306 0.262521 -0.0643545 0.270298 
4285 2 0.0493879 0.225866 -0.148401 0.274732 
471 1 0.033469 0.273618 -0.175687 0.326884 
783 1 -0.210672 -0.00862851 0.182079 0.278586 
349 1 0.117848 -0.0192268 0.162547 0.201691 
4028 2 -0.2112 0.200468 0.183645 0.344265 
917 1 0.0420122 -0.150517 -0.0231064 0.157969 
3322 1 0.138502 0.142214 0.154948 0.251827 
3863 2 -0.115069 -0.10488 0.10271 0.186521 
274 1 0.021473 -0.148614 -0.0470715 0.157363 
1091 1 -0.0071979 -0.180684 0.265043 0.320852 
3396 1 0.0127122 -0.0994327 0.0609028 0.117293 
275 1 0.159592 0.0274342 0.029041 0.164516 
502 1 0.0636616 -0.122584 0.141133 0.197479 
3378 1 0.248277 0.242389 -0.118333 0.366602 
2545 1 0.00268204 -0.0609696 -0.0348057 0.0702561 
3435 1 0.00195399 -0.155588 0.105508 0.187998 
3327 1 -0.0381429 -0.120956 0.0638028 0.141972 
3674 2 0.0416258 0.239461 0.203491 0.31699 
1418 1 0.188269 -0.231777 -0.00397396 0.298633 
443 1 -0.0577678 -0.00738951 -0.0371143 0.0690593 
855 1 0.121527 -0.173298 -0.0972296 0.232926 
3476 2 0.150956 -0.305586 0.0461092 0.343943 
2869 1 -0.0622466 -0.152613 0.107733 0.196906 
4307 2 0.00693297 -0.115281 -0.0720712 0.136132 
177 1 -0.0309239 -0.112976 0.0448424 0.125422 
363 1 -0.0105257 -0.251268 -0.112745 0.275604 
1450 1 0.0280651 -0.0717752 0.0144504 0.07841 
3559 2 0.0270487 0.108518 0.0226872 0.114116 
347 1 -0.00128116 0.00489718 0.064242 0.0644411 
319 1 -0.129067 -0.0813261 0.0156176 0.15335 
4098 2 -0.0256067 -0.110876 0.184728 0.216964 
4143 2 0.0246766 -0.138779 -0.201028 0.245521 
830 1 -0.0943839 -0.0601316 -0.0567472 0.125477 
268 1 0.0701072 -0.059948 -0.0582131 0.109076 
937 1 0.0559103 -0.0605172 -0.109747 0.137232 
854 1 0.111934 -0.0118975 -0.123535 0.167128 
442 1 0.04484 -0.124266 -0.200549 0.240151 
314 1 0.119958 -0.119356 -0.0574953 0.178722 
31 1 -0.0711407 -0.006284 -0.0941886 0.118203 
3070 1 0.2189 -0.0624392 -0.225959 0.320739 
964 1 -0.0587598 -0.0197545 -0.376531 0.3816 
793 1 0.104437 -0.278429 -0.122213 0.321506 
3397 1 0.0152972 -0.221006 -0.182719 0.287166 
419 1 0.46552 -0.223957 0.179171 0.54678 
899 1 0.0815982 -0.102896 -0.112722 0.173067 
1337 1 0.261791 -0.376143 -0.0895956 0.466953 
822 1 0.13263 -0.105248 -0.0524269 0.177246 
208 1 -0.0258771 -0.206899 -0.134671 0.24822 
3544 2 0.0701 -0.0542742 -0.181989 0.202434 
1430 1 -0.0112935 -0.0703933 -0.231409 0.242142 
3200 1 0.121951 -0.00638364 -0.0304254 0.125851 
757 1 -0.0109206 -0.231052 -0.177946 0.291837 
4264 2 0.2585 -0.0155839 0.0571961 0.26521 
3643 2 -0.029175 -0.262115 -0.157088 0.306973 
329 1 -0.090174 0.0851121 -0.00998039 0.124399 
85 1 0.0761087 -0.0958365 0.260846 0.288128 
3240 1 -0.0464115 0.0683729 0.313188 0.323907 
113 1 0.0749486 0.109455 0.0343209 0.137024 
504 1 -0.116459 -0.000369313 0.190338 0.223139 
2795 1 -0.20979 -0.0327504 0.16937 0.271607 
402 1 0.137788 -0.0846245 -0.0195625 0.162879 
3383 1 0.0201862 0.0953914 0.0697944 0.119909 
699 1 -0.0306999 0.0502832 0.174398 0.18408 
3545 2 0.0481998 -0.0858463 -0.0530171 0.11182 
107 1 -0.0956571 0.152718 -0.0803831 0.197318 
581 1 -0.0773696 -0.0400922 0.136867 0.162253 
3541 2 -0.023637 -0.0208894 0.0204909 0.0376158 
786 1 0.067055 -0.142838 0.0998546 0.186735 
800 1 0.0334754 -0.242675 -0.0399559 0.24821 
367 1 0.112966 -0.119155 0.0572715 0.173895 
2687 1 -0.0139746 -0.167075 0.0492324 0.174738 
781 1 0.0467214 -0.204957 -0.181423 0.277677 
3339 1 -0.0623545 0.00289884 -0.0296186 0.0690923 
3434 1 -0.000449528 -0.00197242 -0.100823 0.100843 
404 1 -0.0296448 0.0332121 -0.0157811 0.0472324 
4237 2 0.0871925 -0.127146 -0.00597915 0.154287 
2814 1 0.0438595 0.0321142 0.0642311 0.0841464 
1723 1 0.020383 -0.0902892 -0.0820948 0.123722 
3264 1 0.143919 -0.255808 0.0928516 0.307851 
440 1 -0.0404287 -0.0696191 0.02556 0.0844666 
431 1 -0.0216758 0.0518708 0.0764975 0.0949331 
501 1 0.188306 -0.178198 -0.103393 0.279112 
1442 1 0.0273165 -0.25926 0.183832 0.318992 
968 1 0.140473 -0.16382 -0.050565 0.221645 
2656 1 0.0764216 -0.0560802 -0.0663095 0.115681 
421 1 -0.185721 -0.0269875 -0.00360107 0.187706 
801 1 0.00245264 -0.163823 -0.174746 0.239541 
4152 2 -0.134958 0.0422718 -0.0415518 0.147401 
3278 1 0.133194 -0.0462951 -0.203394 0.247494 
771 1 -0.0609096 0.0544599 0.169166 0.187864 
1254 1 -0.0105635 -0.0360319 -0.0815994 0.0898239 
3436 1 -0.0197625 -0.103493 -0.0570335 0.119809 
3192 1 0.15643 -0.0459343 -0.573201 0.595936 
461 1 0.00348794 0.09289 -0.104202 0.139638 
2884 1 0.0841879 -0.129498 -0.240223 0.285595 
3371 1 0.13804 -0.0625286 -0.322772 0.356576 
486 1 0.0849597 0.165194 -0.291379 0.345556 
840 1 -0.0295683 0.0355971 -0.331779 0.334991 
187 1 -0.223432 0.0256092 0.273004 0.353707 
328 1 0.00526651 -0.126302 0.0280109 0.129478 
249 1 -0.0308024 -0.416668 0.177132 0.453802 
3678 2 -0.208238 0.165136 0.134635 0.297925 
430 1 -0.271831 -0.157013 0.14931 0.347619 
483 1 -0.0419404 -0.228006 0.0473267 0.236613 
308 1 -0.114002 0.0217344 -0.0370482 0.121825 
3380 1 0.180175 0.0990942 0.139606 0.24854 
128 1 -0.0905595 0.027021 -0.0292017 0.0989136 
907 1 -0.061117 -0.0246605 0.0163551 0.0679038 
1641 1 -0.0900355 -0.077133 -0.137833 0.181807 
172 1 -0.263206 0.0316623 0.00869097 0.265246 
1934 1 -0.0399445 -0.23941 0.0343482 0.245138 
453 1 -0.00201833 -0.00343102 -0.047055 0.047223 
1544 1 -0.0524247 0.020982 -0.0693259 0.089413 
522 1 0.0613796 0.402138 -0.0589224 0.411041 
1535 1 -0.0234396 -0.137541 0.10013 0.171736 
573 1 -0.184743 -0.0292287 0.089167 0.207208 
3844 2 -0.124778 -0.139911 0.153449 0.242262 
631 1 -0.0676301 0.0590901 0.103291 0.136874 
3600 2 0.103286 0.0784501 -0.12264 0.178502 
606 1 -0.0156837 -0.0991827 0.207518 0.230536 
1569 1 -0.232309 -0.11581 -0.165641 0.307923 
1474 1 -0.1498 0.0571353 0.177418 0.239127 
627 1 0.0181198 -0.0297239 -0.0242806 0.0424427 
865 1 0.134262 0.00535 0.180954 0.225387 
63 1 -0.14 0.0244302 0.0691642 0.158052 
577 1 -0.252046 0.00228632 0.156141 0.2965 
565 1 -0.0668396 -0.014703 0.0773367 0.10327 
3616 2 -0.0957361 0.243103 0.000241044 0.261275 
3418 1 -0.0555886 -0.0772301 -0.0411938 0.103689 
4176 2 -0.178023 0.0473752 -0.0413278 0.188798 
69 1 -0.173865 -0.0786905 0.158262 0.247928 
52 1 0.00478169 -0.0547504 -0.0961217 0.110724 
345 1 -0.0100337 -0.0805862 -0.0525005 0.0967011 
4319 2 -0.0599308 0.0561724 0.0172821 0.0839387 
655 1 -0.241486 0.0697419 0.258448 0.36052 
1053 1 -0.0589926 0.018065 -0.0775178 0.0990731 
621 1 -0.141091 -0.0876563 -0.160578 0.231032 