ITEM: TIMESTEP
8800
ITEM: NUMBER OF ATOMS
4320
ITEM: BOX BOUNDS pp pp pp
0.0000000000000000e+00 1.9309999999999999e+01
0.0000000000000000e+00 1.9309999999999999e+01
0.0000000000000000e+00 9.6549999999999994e+00
ITEM: ATOMS id type c_displacement[1] c_displacement[2] c_displacement[3] c_displacement[4] 
3196 1 -0.305684 0.0497525 -0.159682 0.348449 
381 1 -0.206865 0.00483945 0.186239 0.278391 
327 1 -0.0513259 0.0989268 0.18808 0.218621 
484 1 0.00345407 0.234921 0.160466 0.284516 
728 1 -0.0366101 0.0707079 0.16958 0.187343 
303 1 0.147482 -0.122334 -0.281538 0.340559 
155 1 -0.34934 0.015955 -0.0792231 0.358565 
4053 2 0.00900385 0.113744 0.0950291 0.14849 
4289 2 -0.144534 0.149102 0.131192 0.245627 
691 1 -0.130292 -0.326577 -0.211165 0.410146 
2945 1 0.0408921 0.153095 0.0148275 0.159154 
3230 1 0.0910756 0.127911 0.031863 0.160223 
3651 2 -0.0230387 0.147081 0.0217216 0.150451 
66 1 -0.0351431 0.0651802 -0.063885 0.0977997 
400 1 -0.0517817 0.123034 0.014364 0.134257 
677 1 -0.166871 0.0124839 0.11505 0.203072 
87 1 0.0645352 0.219158 0.0360895 0.231295 
546 1 -0.111219 0.0664366 0.135512 0.187475 
623 1 -0.182622 0.0501473 -0.118504 0.223402 
3712 2 -0.00525244 0.0574792 -0.0268755 0.0636689 
727 1 -0.0204778 0.114922 -0.121643 0.168592 
688 1 0.0756976 0.0859429 0.0729682 0.135796 
58 1 -0.0259318 0.0239696 -0.213875 0.216771 
3514 2 0.0251167 -0.0944484 -0.0604708 0.114926 
18 1 0.211063 0.2275 0.126889 0.335268 
190 1 -0.0689398 0.0540854 -0.257106 0.271627 
298 1 -0.053606 -0.0758477 -0.068134 0.11519 
3618 2 0.134976 0.0296881 -0.0293862 0.141292 
110 1 0.0176125 -0.0391792 0.0873399 0.0973317 
3611 2 -0.0170413 -0.0161259 0.0268869 0.0356841 
106 1 -0.0760395 0.0427529 0.0145722 0.088443 
217 1 0.0922414 0.0274321 0.0594489 0.113116 
775 1 0.0342554 0.10149 -0.0903898 0.140157 
3627 2 -0.0235591 0.180279 -0.0676212 0.19398 
180 1 0.0354452 0.000872674 0.261165 0.263561 
3478 2 0.0933944 0.18478 0.107395 0.233238 
737 1 0.204836 0.0272046 -0.361571 0.416451 
3118 1 0.0148153 0.116172 -0.108382 0.159569 
562 1 0.0065208 0.0155003 -0.00725988 0.0183163 
70 1 -0.102039 0.101767 0.0133341 0.144729 
121 1 0.0327686 0.043891 -0.0355206 0.0652833 
1118 1 -0.0721489 -0.110784 0.0796799 0.154362 
210 1 0.0923363 -0.0390216 0.174531 0.20127 
4214 2 0.0366933 0.0660324 0.173002 0.188776 
226 1 0.144531 0.0608953 0.118672 0.196674 
2936 1 0.0923661 0.118847 -0.0537822 0.15984 
424 1 0.0018062 0.123533 -0.013647 0.124297 
532 1 0.0390883 -0.0761457 0.205428 0.222546 
3578 2 0.0636738 0.0837675 0.309232 0.326643 
473 1 0.0542851 -0.0219383 0.0021581 0.0585903 
246 1 0.0152676 0.0993384 0.192701 0.217336 
3199 1 0.0506061 0.119996 -0.0574264 0.14233 
817 1 0.241629 -0.0522946 0.14382 0.286013 
4071 2 0.0895125 0.177171 0.281009 0.344047 
2838 1 -0.0889185 0.186115 0.140604 0.249629 
536 1 0.0530991 0.12653 0.104069 0.17222 
894 1 -0.148497 -0.0113724 -0.202535 0.251398 
289 1 0.0932702 -0.0612632 0.132114 0.172935 
351 1 -0.0621764 0.183003 -0.0746458 0.20719 
3135 1 -0.0432243 0.13618 -0.0943588 0.171221 
3006 1 0.0285551 0.104017 0.0762642 0.132103 
1415 1 0.0297158 0.224506 0.0283712 0.228235 
527 1 -0.307529 0.0366609 0.0592237 0.315318 
3002 1 -0.210525 0.198728 0.0623837 0.296151 
3189 1 0.257959 0.13175 0.0889029 0.302992 
712 1 -0.0938734 -0.0733722 0.0488207 0.12876 
718 1 0.0745538 -0.0168651 0.221511 0.234328 
3469 2 0.0689052 0.201304 0.0322939 0.215207 
920 1 -0.0823152 0.0154943 0.0653825 0.106258 
3346 1 0.111827 0.0981846 0.00845284 0.149053 
4177 2 0.222734 -0.397191 0.217239 0.504543 
93 1 -0.104068 0.226071 0.109888 0.272055 
569 1 0.0342665 0.00378272 0.115233 0.120279 
639 1 -0.121283 0.200035 0.0151244 0.234419 
21 1 -0.139836 0.0244229 0.105654 0.176956 
3353 1 -0.104235 -0.171947 -0.0484931 0.206838 
823 1 0.122611 0.0655993 0.00475407 0.139138 
2596 1 -0.0897919 -0.169163 0.136967 0.235454 
50 1 0.0173031 -0.209755 0.11401 0.239363 
2495 1 0.00421306 0.183855 0.0961862 0.207538 
28 1 -0.158825 0.0836887 -0.122098 0.217111 
3055 1 0.0593759 0.0101918 -0.0687657 0.0914226 
12 1 0.163481 0.0744784 -0.163629 0.242997 
738 1 0.0390488 -0.168354 -0.0453502 0.178675 
65 1 0.0609004 0.122523 0.11562 0.179133 
232 1 -0.0747348 0.157428 0.0252097 0.17608 
4170 2 -0.0440569 -0.0470447 0.352991 0.358827 
2453 1 0.137795 0.00849751 0.166623 0.216386 
3167 1 -0.0759529 -0.094271 0.0687983 0.139245 
339 1 0.0555375 0.15234 0.0656747 0.174943 
390 1 0.12509 0.058056 0.110637 0.176801 
203 1 -0.0218987 0.0913884 0.0989281 0.136448 
3582 2 0.109245 0.279971 0.0277527 0.301808 
3632 2 0.0713152 0.224729 0.0393729 0.239038 
231 1 0.0633788 0.093842 0.183556 0.215676 
323 1 0.10455 0.0174022 0.0494442 0.116954 
3244 1 0.138996 0.120889 -0.0323774 0.187036 
118 1 0.23861 0.0797911 -0.00653107 0.251682 
608 1 0.0462748 -0.0293019 0.106342 0.119619 
3916 2 -0.124189 0.0616439 -0.0725979 0.156504 
2960 1 -0.131058 0.0197965 -0.117574 0.177177 
2735 1 -0.0612044 -0.0281081 -0.157879 0.171644 
29 1 -0.0173878 0.354676 -0.138143 0.381026 
753 1 -0.00247673 -0.137102 -0.0557131 0.14801 
3467 2 -0.162242 0.208098 -0.0403311 0.266934 
553 1 -0.0294405 0.243461 -0.521933 0.576675 
3251 1 -0.0976025 0.137062 -0.329326 0.369822 
2768 1 0.108224 0.0983316 -0.173139 0.226625 
2478 1 0.0187173 0.135476 0.0642455 0.151101 
437 1 0.11006 0.161384 -0.155898 0.249925 
53 1 0.28466 0.21194 -0.106524 0.370536 
593 1 -0.238287 0.194205 0.344876 0.461991 
609 1 0.139756 0.0144391 -0.033519 0.144443 
3040 1 -0.1246 0.121574 -0.0064976 0.174205 
725 1 0.00980197 0.0309648 0.00938991 0.0338093 
197 1 -0.136873 0.202475 -0.0874806 0.259583 
1454 1 -0.15494 0.0935427 0.0222991 0.182357 
167 1 -0.095628 0.0633141 0.128131 0.171962 
610 1 0.14327 0.0901274 0.0900437 0.191722 
89 1 -0.0952209 0.0576552 0.0741815 0.133769 
3149 1 0.039686 0.0330879 0.162945 0.170941 
550 1 0.145171 -0.373115 0.239543 0.466552 
147 1 0.0588036 0.000693785 0.21479 0.222695 
247 1 0.089036 0.016129 0.0399465 0.0989104 
3152 1 -0.10436 0.0515204 0.0214496 0.118345 
3554 2 -0.0162437 -0.0139276 0.123023 0.12487 
3786 2 0.0347219 0.0919018 -0.0551137 0.112646 
5 1 0.0895706 0.0789131 0.0233213 0.121631 
2591 1 0.143308 0.161836 0.0379542 0.219474 
3232 1 0.0785132 0.0137759 -0.0794823 0.112568 
1215 1 0.228151 0.0743522 -0.0714014 0.250358 
859 1 0.193545 0.0938191 -0.0118916 0.215414 
3679 2 -0.155385 0.141516 -0.0412693 0.214183 
2461 1 -0.0934764 0.110972 0.0109205 0.145506 
988 1 -0.0121745 0.173212 -0.201093 0.265686 
23 1 0.0312053 -0.00302842 -0.0850985 0.0906902 
215 1 -0.171226 0.0683115 0.012702 0.184786 
96 1 0.0547101 -0.155995 0.00205729 0.165324 
3730 2 0.0888462 0.175467 -0.0501883 0.202981 
43 1 0.0230805 0.0709282 -0.00899121 0.0751289 
3743 2 -0.0882202 0.232129 0.0496412 0.253241 
3023 1 0.0284656 0.0954171 -0.0586833 0.115579 
151 1 0.128848 0.12459 0.148446 0.232724 
3586 2 0.0304532 -0.219959 0.150169 0.268068 
4187 2 0.066927 0.180256 -0.487181 0.523753 
2500 1 0.0312066 -0.0839123 -0.0328926 0.0953785 
3188 1 0.0133853 0.244279 -0.0240608 0.245826 
529 1 -0.322205 -0.318517 -0.177367 0.486547 
825 1 0.0597353 0.0464759 -0.0439652 0.0875286 
1149 1 0.0442551 -0.0649066 0.330083 0.339303 
140 1 -0.168994 -0.180631 0.27949 0.373231 
3464 2 -0.517229 -0.63649 0.0389326 0.821073 
3491 2 -0.309918 0.308493 -0.18571 0.475085 
2931 1 -0.145906 -0.0683271 0.210529 0.265103 
174 1 -0.077095 -0.143088 0.0316898 0.165596 
1331 1 -0.226908 0.0398587 0.121827 0.26061 
3608 2 0.0520752 0.0649355 0.0737522 0.111211 
1480 1 -0.0837388 -0.0770467 0.329791 0.34887 
2968 1 0.0102692 -0.0519731 0.226249 0.232369 
98 1 0.0934828 -0.303063 0.150359 0.35099 
40 1 -0.00478418 0.0245666 0.0983021 0.101438 
257 1 -0.0571766 0.00858864 -0.0747802 0.0945252 
133 1 0.0676322 0.222116 0.103521 0.254217 
1130 1 -0.144792 0.0577288 0.0933067 0.181669 
3041 1 -0.0845329 -0.313324 -0.0655643 0.331084 
604 1 0.0492816 0.0707798 0.0503466 0.0998661 
721 1 -0.291219 -0.00270798 -0.30445 0.421314 
2994 1 0.0140406 0.00276035 0.264504 0.264891 
3164 1 0.0858995 0.206521 0.0131216 0.224057 
241 1 -0.284482 0.181578 -0.0150512 0.337827 
1133 1 0.0916891 -0.0872733 0.101794 0.162437 
64 1 -0.0447305 0.0114835 -0.103669 0.11349 
193 1 0.130394 0.172737 -0.150673 0.26371 
44 1 0.0783235 -0.0442427 -0.0262353 0.0937032 
2996 1 0.04421 0.0835171 -0.198147 0.219527 
4212 2 -0.030125 0.26175 -0.0992582 0.281554 
3279 1 0.0480077 0.0539498 -0.0791659 0.107157 
178 1 0.0711644 0.0851479 -0.0605694 0.126425 
3841 2 -0.00418052 0.0431977 -0.0485388 0.0651117 
4228 2 -0.0695848 0.154158 -0.00703405 0.169282 
580 1 -0.172771 -0.0701531 0.220236 0.288574 
949 1 -0.0439759 0.111725 0.0527964 0.131163 
330 1 0.0499331 0.229889 0.0629376 0.243522 
600 1 0.0158894 -0.0128964 0.0140346 0.0248145 
338 1 -0.108144 -0.0379915 -0.0274251 0.117858 
4101 2 -0.0346803 0.0651189 0.0425474 0.0851674 
4217 2 -0.0767058 -0.114271 -0.00515448 0.137725 
154 1 -0.103075 -0.146369 -0.0295765 0.181447 
103 1 0.00376372 0.0938265 -0.0105729 0.0944953 
479 1 -0.0747655 0.0593377 -0.00345891 0.0955134 
3335 1 -0.0321892 -0.0907864 0.109555 0.145879 
1457 1 -0.221162 -0.0697507 -0.0382902 0.23504 
3037 1 -0.108054 0.20458 -0.10151 0.252652 
4253 2 0.0196359 0.0637595 -0.0085831 0.0672645 
387 1 -0.0924545 -0.0094611 0.0552225 0.108106 
3736 2 -0.105509 0.201332 -0.228136 0.322045 
78 1 0.105275 0.12419 0.0164953 0.16364 
717 1 -0.0598766 -0.0730473 0.128341 0.15935 
508 1 -0.067968 -0.0330913 0.0413723 0.0861763 
3537 2 0.052394 -0.10704 -0.0720468 0.13926 
747 1 -0.189558 0.151605 -0.0659021 0.251514 
497 1 0.00362005 -0.1072 0.0365948 0.113332 
958 1 -0.0940456 -0.199797 -0.0298501 0.222833 
3130 1 -0.0438694 -0.141631 -0.077981 0.167526 
4163 2 0.0144195 -0.128899 0.0849087 0.155023 
3394 1 -0.135372 -0.139502 -0.00927052 0.194609 
3830 2 -0.469281 -0.106499 0.133784 0.499465 
4204 2 0.00247094 -0.480374 0.226692 0.531182 
86 1 0.166793 -0.0015624 -0.224127 0.279383 
759 1 0.116116 0.0690258 -0.18401 0.22827 
3411 1 -0.0882194 0.0248881 0.199379 0.21944 
835 1 -0.260345 0.221634 0.0610113 0.347308 
3057 1 0.228661 0.12808 -0.151107 0.302529 
3620 2 -0.262568 0.456215 0.0339097 0.527469 
704 1 0.0398975 0.305274 -0.120917 0.330764 
3493 2 0.102226 -0.089538 0.165144 0.213868 
157 1 0.0874105 0.0911088 -0.0322158 0.130305 
54 1 0.164187 0.0759252 -0.15365 0.23734 
493 1 0.0779385 0.261322 0.0417495 0.275875 
204 1 0.00767684 -0.001134 -0.0993984 0.0997009 
254 1 0.0622994 0.149147 -0.126716 0.205385 
3007 1 -0.160973 -0.0136931 -0.0533058 0.170122 
67 1 0.0818531 0.0842171 -0.0722088 0.137864 
2988 1 -0.0484325 0.293873 -0.169509 0.342696 
3030 1 -0.199099 0.203808 -0.0875294 0.29806 
4050 2 0.165509 0.273645 -0.0288947 0.321107 
2004 1 -0.150172 0.00653203 -0.027073 0.152732 
540 1 -0.0801275 0.15257 -0.215 0.275541 
3216 1 -0.144412 -0.000367309 0.0044004 0.144479 
3479 2 0.127724 0.74003 -0.214044 0.780879 
234 1 -0.0719245 0.0355178 -0.129859 0.152636 
1036 1 0.176832 0.0139122 0.10473 0.205989 
3369 1 -0.0777552 0.0149417 0.0212608 0.0819826 
3607 2 -0.0236875 0.2133 -0.168583 0.272907 
3139 1 0.00786585 0.0689333 -0.0994456 0.121256 
644 1 -0.0826792 -0.0258979 0.115976 0.144765 
1278 1 -0.0947205 -0.0832465 -0.0679465 0.143243 
4269 2 -0.108084 0.0565871 0.143904 0.18866 
3408 1 -0.174841 0.0804675 0.0879124 0.211597 
563 1 -0.0141876 0.0278553 0.0293831 0.0429019 
214 1 -0.00194069 0.0190843 -0.0122296 0.0227495 
640 1 -0.0463775 0.0416069 0.0879042 0.107746 
199 1 -0.0456486 -0.0351739 0.0732649 0.0932134 
245 1 -0.142471 -0.0421503 0.0895842 0.173494 
2758 1 -0.19807 0.0989062 0.054949 0.228109 
3056 1 -0.106014 -0.0108962 0.0211886 0.108659 
3468 2 -0.0931772 -0.000756889 0.119724 0.151712 
4089 2 -0.0368924 0.15742 0.0621964 0.173235 
249 1 -0.0744267 -0.0704744 0.045216 0.112029 
2684 1 -0.231187 0.107137 -0.226787 0.341113 
3096 1 -0.0513572 0.10802 -0.0560369 0.132083 
240 1 -0.0346357 0.164088 -0.117809 0.204947 
181 1 -0.126127 -0.0885015 -0.0435983 0.160129 
46 1 0.0342838 -0.272998 0.014221 0.27551 
3211 1 -0.00297971 0.111456 0.120026 0.163822 
3603 2 -0.0987185 -0.351347 0.251248 0.443075 
95 1 -0.237597 -0.199392 0.0267598 0.311329 
80 1 -0.19818 0.0188994 0.0205184 0.200134 
2939 1 -0.182574 0.129163 -0.0261124 0.225163 
1102 1 0.120175 0.442742 -0.235566 0.515708 
3701 2 0.210467 0.0389023 -0.0169399 0.214702 
3513 2 -0.0276317 -0.0588097 0.0500013 0.0819892 
312 1 0.133844 -0.0492877 -0.207035 0.25141 
587 1 -0.0480162 0.0900283 0.0656598 0.121334 
135 1 -0.1514 -0.151602 -0.176435 0.277551 
3512 2 -0.0499441 0.0945936 0.0792135 0.133106 
134 1 -0.115421 0.161336 0.00290342 0.198393 
191 1 0.0713739 0.108512 0.00475935 0.129968 
2981 1 0.000413081 0.0430496 -0.0228468 0.0487383 
195 1 -0.0503727 -0.0112268 -0.0164439 0.054165 
2995 1 0.000754625 -0.0600474 -0.235329 0.242871 
685 1 -0.00388591 0.0690267 -0.192919 0.204933 
602 1 -0.137627 0.0454444 -0.00402456 0.144991 
3092 1 -0.0483461 0.0298384 0.108876 0.122807 
4195 2 -0.0599274 -0.117807 -0.130699 0.185882 
559 1 -0.0379212 0.0982771 -0.171924 0.201629 
1179 1 0.15463 0.0877229 -0.115664 0.212094 
674 1 0.00460085 0.0759595 -0.0716137 0.104497 
182 1 0.0107884 0.0208684 -0.0410224 0.0472728 
427 1 -0.0217504 0.105435 -0.173023 0.203781 
4173 2 0.0143835 0.150936 -0.0761426 0.169665 
2950 1 0.0805611 -0.0699531 -0.0687829 0.126943 
6 1 -0.0995032 0.0532806 -0.0101047 0.113322 
690 1 0.0547517 -0.0322163 0.0382327 0.0741444 
902 1 0.0497974 -0.102197 0.0345429 0.118816 
354 1 -0.0347086 0.0117645 -0.00643621 0.0372091 
3115 1 -0.0691851 0.0889019 -0.146741 0.184995 
742 1 0.023748 -0.0206085 0.0409944 0.0516644 
3599 2 -0.22593 0.316665 -0.0534663 0.392658 
2926 1 -0.200708 0.0138053 0.0140489 0.201672 
710 1 -0.0712044 -0.0511783 -0.0416887 0.0970939 
3003 1 -0.00801156 0.095847 -0.0159605 0.0974965 
3518 2 -0.2382 0.182543 0.0104747 0.300285 
2977 1 -0.0913363 -0.0026734 0.0330705 0.0971757 
3644 2 -0.0370517 0.0919259 -0.0115659 0.0997846 
2494 1 0.00166017 0.192271 0.000469299 0.192279 
446 1 -0.0868658 -0.0567153 0.118861 0.157766 
2873 1 0.00732726 0.175326 0.172101 0.245788 
205 1 -0.316593 0.0449282 0.00950052 0.319906 
694 1 -0.217539 0.130995 0.0539404 0.2596 
861 1 -0.219151 -0.17335 0.111762 0.300945 
3549 2 -0.104264 -0.133447 -0.211557 0.270989 
3401 1 -0.15005 0.110025 0.0828426 0.203675 
1077 1 -0.0844703 0.0967369 -0.000249064 0.128426 
1324 1 0.188468 0.00164279 -0.105898 0.216188 
3094 1 -0.0924659 0.0807181 0.109653 0.164588 
3281 1 0.122859 -0.0215103 0.0589034 0.137937 
512 1 0.0345994 0.130216 -0.00351581 0.13478 
300 1 -0.00424107 0.000397829 -0.157279 0.157337 
393 1 0.00635271 -0.14235 -0.0127385 0.14306 
2740 1 0.0236648 0.129979 -0.0162685 0.133113 
3197 1 -0.174313 0.018095 -0.159462 0.23694 
4006 2 -0.148981 -0.125501 -0.0437465 0.199649 
3341 1 -0.185982 0.0257903 -0.0773262 0.203061 
389 1 0.113847 -0.0607906 -0.0271742 0.131891 
277 1 -0.149065 -0.0239917 -0.105266 0.184057 
364 1 -0.162517 -0.0754805 -0.0771629 0.195098 
1367 1 -0.0432359 -0.0278055 -0.14573 0.154531 
411 1 -0.177513 0.0701802 0.0253038 0.192553 
3389 1 -0.0462265 -0.118351 -0.230689 0.263365 
160 1 -0.247409 0.346163 -0.0247685 0.426208 
2628 1 0.203623 -0.0298292 -0.0854424 0.222829 
966 1 -0.122728 0.000678451 -0.0412901 0.129489 
1449 1 -0.01202 -0.0349516 0.0721872 0.0810992 
357 1 -0.317993 -0.0166959 0.0997765 0.333697 
362 1 0.0305336 0.0750064 0.0690139 0.106401 
478 1 -0.200223 0.0656659 -0.0065886 0.210819 
4159 2 -0.386267 0.46605 0.0277348 0.605949 
2696 1 0.0241833 0.0722596 -0.0288206 0.0814672 
780 1 -0.190029 0.0200142 -0.190428 0.269768 
3612 2 -0.00988119 0.134202 0.179025 0.22396 
2710 1 -0.0623279 -0.000904143 -0.00797043 0.062842 
3313 1 -0.122565 -0.010665 -0.078934 0.146173 
3333 1 -0.0483438 0.00148938 0.0182144 0.0516828 
924 1 0.0987171 0.145587 0.0868813 0.196186 
3319 1 -0.0456295 0.0747736 -0.114633 0.14427 
3526 2 -0.00891367 -0.0753738 -0.0119094 0.0768277 
3337 1 -0.0483522 0.0716548 -0.0377159 0.0943124 
4014 2 -0.108592 -0.0935551 0.184583 0.2337 
3808 2 0.0201644 0.0719569 0.0183055 0.0769382 
903 1 -0.00505137 -0.0476955 -0.173787 0.180284 
3303 1 -0.0569375 0.135763 0.165222 0.221296 
3249 1 -0.0342921 0.0270384 -0.050566 0.0668127 
92 1 0.0710734 -0.0360719 -0.0994885 0.127478 
3379 1 -0.023758 0.0265393 -0.0841694 0.0913962 
228 1 -0.0562482 0.0259432 0.00995426 0.0627375 
3393 1 -0.177667 0.0267022 0.027714 0.181788 
3631 2 0.11225 0.0284511 -0.00220757 0.115821 
3162 1 -0.16749 0.0321954 0.044069 0.176158 
462 1 -0.0930194 0.0275632 0.138408 0.169024 
2966 1 0.0982476 0.0422478 0.0232991 0.109455 
3022 1 0.143139 0.0833894 0.00800901 0.165851 
750 1 -0.117838 0.0311483 -0.016933 0.123056 
449 1 0.132169 -0.00207958 -0.0444954 0.139473 
100 1 0.0318379 -0.0119067 0.0756432 0.0829296 
886 1 0.00623619 0.0504705 0.124791 0.134755 
287 1 -0.0623275 -0.066242 -0.0585125 0.10815 
3647 2 -0.271838 0.0593373 0.0406415 0.281191 
2890 1 0.125357 0.0275476 0.0414674 0.134881 
1285 1 0.00630506 0.275728 0.276991 0.390884 
3209 1 -0.0697865 -0.018062 -0.316669 0.32477 
943 1 0.116047 0.101921 -0.0168484 0.155366 
3305 1 0.183801 0.0470076 0.00512665 0.189786 
3409 1 0.0310832 -0.0421042 -0.170273 0.178134 
2961 1 0.0022653 -0.0464167 -0.155621 0.162411 
2732 1 0.0941414 0.00737162 -0.0979308 0.136042 
356 1 0.209988 -0.0882805 -0.0555684 0.23447 
3404 1 -0.0162404 -0.147116 -0.130615 0.197401 
4318 2 -0.0864292 0.0300219 -0.0450828 0.101999 
3883 2 0.243961 0.01623 -0.0486599 0.249295 
3227 1 0.129111 -0.0693158 -0.175295 0.228479 
373 1 0.0923021 0.128299 -0.21165 0.264152 
4297 2 0.0342917 0.0724237 -0.146785 0.167233 
3531 2 -0.00508149 -0.166339 -0.0798764 0.184593 
3482 2 -0.0536819 -0.0999083 -0.022164 0.115562 
3221 1 -0.0199194 0.156347 -0.149279 0.217084 
398 1 0.120503 -0.0696998 -0.111732 0.178503 
309 1 0.0272928 0.0560037 -0.203295 0.212627 
836 1 0.0700263 -0.0693411 0.02131 0.100827 
394 1 0.138207 0.035164 -0.0572863 0.153686 
412 1 0.0279132 0.0833412 -0.0300191 0.0928765 
1212 1 -0.0367784 0.103215 -0.0718363 0.131021 
3573 2 -0.00580714 0.000757013 -0.064327 0.064593 
2479 1 -0.013739 0.0689055 -0.0915164 0.115378 
2365 1 -0.159956 0.0235485 -0.173889 0.23744 
3360 1 -0.0073528 0.052351 -0.126248 0.13687 
3588 2 -0.0790129 0.110675 0.163122 0.212369 
306 1 -0.198261 0.113994 -0.0375762 0.231763 
3093 1 -0.100254 0.107757 -0.182222 0.234237 
2745 1 -0.0635881 0.124968 0.0773473 0.160135 
355 1 -0.137261 0.0409686 -0.110961 0.181194 
3097 1 0.0223328 0.0769308 -0.0281316 0.0849028 
3324 1 -0.0333434 0.111598 0.0465038 0.125414 
951 1 -0.0313663 0.10349 -0.0142495 0.109073 
2737 1 -0.0699023 -0.0763474 -0.0169445 0.104892 
2959 1 0.0310208 0.197544 -0.125722 0.236203 
4284 2 -0.217936 0.0900101 0.0708594 0.246209 
4225 2 0.0285089 0.159863 -0.159993 0.227962 
3483 2 0.040488 0.120763 0.143277 0.191706 
4116 2 0.00472244 -0.0325476 0.0318265 0.0457665 
614 1 0.0623475 -0.00787733 -0.0321829 0.0706045 
221 1 -0.199467 0.173184 0.0487033 0.268611 
353 1 0.042557 0.0472427 0.0375981 0.0738687 
3676 2 0.187428 0.00594436 0.0357656 0.190902 
601 1 0.140855 0.148365 -0.0531634 0.211373 
3617 2 0.129593 -0.0533721 -0.0548234 0.150494 
206 1 0.10839 0.0271327 0.0823462 0.1388 
71 1 0.212998 0.00180024 -0.0792177 0.22726 
4185 2 0.181509 -0.0161603 -0.0321608 0.185043 
3301 1 -0.0579172 -0.0385069 -0.13978 0.156127 
3561 2 0.0517804 0.207679 -0.186489 0.283884 
388 1 0.146275 0.12696 0.0947572 0.215624 
1313 1 0.230085 0.0933909 -0.0318663 0.250353 
444 1 0.11681 0.131741 0.0166726 0.176857 
3668 2 0.214812 0.129991 -0.0688497 0.26035 
838 1 0.0979604 0.0228897 -0.00112642 0.100605 
460 1 0.139802 -0.0835092 -0.106291 0.194464 
499 1 0.163451 0.0974225 -0.0865312 0.209034 
3548 2 -0.432324 -0.287922 -0.0580442 0.522659 
4264 2 0.061088 0.109849 -0.296994 0.322496 
3321 1 0.203677 -0.0137218 0.0916205 0.223757 
4257 2 0.810311 0.430986 -0.245825 0.950149 
291 1 0.160144 0.00806799 -0.17625 0.238275 
482 1 0.0134181 0.000806463 -0.0564554 0.0580337 
1314 1 0.0390881 0.0364693 0.0379885 0.0655821 
3672 2 0.105847 0.0848722 -0.197773 0.239836 
375 1 0.0335612 -0.0701007 -0.281799 0.292321 
94 1 0.210857 -0.198203 -0.0777189 0.299642 
37 1 -0.116369 -0.122234 0.0538337 0.177147 
4309 2 0.0169681 0.0456494 -0.199008 0.20488 
392 1 0.0828519 0.0275747 -0.148548 0.172312 
3380 1 -0.205404 0.217132 -0.0842925 0.310551 
436 1 0.0493224 0.27462 -0.107161 0.298886 
792 1 0.00613699 -0.0748587 -0.00442475 0.0752401 
3293 1 0.0820769 -0.0473458 -0.0551236 0.109621 
901 1 -0.0232994 -0.0593836 -0.0259461 0.0688657 
318 1 -0.169896 -0.266661 0.0258539 0.31724 
2861 1 -0.130046 -0.180676 -0.119961 0.252876 
3320 1 -0.123103 -0.252849 0.135787 0.31229 
3314 1 -0.0317256 -0.240041 0.101457 0.262525 
3350 1 -0.0327352 0.0234376 0.149975 0.155284 
3180 1 -0.16917 -0.210902 0.0187595 0.271017 
3150 1 -0.253018 0.197057 -0.0140873 0.32101 
3257 1 0.0718925 -0.0388578 -0.218217 0.233017 
3095 1 -0.121607 0.0166749 -0.180326 0.218137 
286 1 -0.0209712 -0.146215 0.014302 0.148402 
3392 1 -0.0686039 -0.055643 0.0751987 0.116006 
4239 2 0.684186 1.28606 -0.483073 1.53474 
3290 1 -0.133067 -0.00855482 0.0435567 0.140275 
771 1 -0.284968 0.138043 -0.0769254 0.325853 
716 1 0.175185 0.0652663 0.00641949 0.187058 
772 1 -0.0548454 -0.163881 -0.00202365 0.172827 
635 1 -0.127819 -0.0322597 -0.217583 0.254403 
626 1 0.0617971 -0.0947895 0.0950233 0.147761 
490 1 -0.178057 -0.0446346 -0.392525 0.433327 
3678 2 -0.164265 0.00222054 0.175414 0.240329 
4271 2 0.168469 0.11003 0.142234 0.246412 
1172 1 0.00486757 -0.0459823 -0.00438615 0.0464468 
652 1 0.129874 -0.0884609 -0.131934 0.205181 
3568 2 -0.0408512 -0.0792068 0.0487221 0.10157 
3433 1 0.138074 -0.0155296 -0.0316237 0.142498 
3419 1 0.0516817 0.0154678 -0.00625151 0.0543077 
248 1 0.0275163 0.059275 0.180012 0.191507 
4098 2 0.00316837 -0.198843 0.496421 0.534773 
471 1 -0.19311 0.417701 -0.305978 0.552619 
3378 1 0.18396 0.179661 0.19109 0.320366 
4143 2 -0.110601 -0.0281156 -0.0420225 0.12161 
325 1 0.209548 -0.0306739 -0.0228274 0.213007 
292 1 0.0454365 -0.0125284 0.0228349 0.0523724 
3444 1 0.077233 -0.210187 -0.0562289 0.230879 
908 1 0.123387 -0.108423 0.0622416 0.175653 
3504 2 0.141548 -0.162645 0.0519488 0.221784 
423 1 0.255716 0.0197981 0.0187756 0.257168 
502 1 0.13276 -0.0948734 0.11888 0.201888 
3435 1 0.0903712 -0.118003 -0.0408407 0.154142 
3331 1 -0.145132 -0.00436256 -0.27009 0.306645 
3535 2 -0.107088 0.122248 -0.0176178 0.163471 
4182 2 -0.108841 -0.0526242 -0.148843 0.191755 
874 1 0.0687668 -0.173345 0.131651 0.228274 
980 1 -0.0126317 -0.065775 0.0044379 0.0671238 
225 1 -0.1061 -0.230753 0.0358538 0.256495 
439 1 0.240727 0.0354111 -0.00216776 0.243327 
1304 1 0.176232 -0.0285316 0.138103 0.225708 
308 1 -0.0228466 -0.0841167 -0.0984438 0.131487 
328 1 0.0144659 -0.092418 -0.186658 0.208786 
822 1 0.106543 -0.116473 0.24083 0.287952 
4280 2 0.00839763 -0.00202726 -0.0964612 0.0968473 
416 1 -0.0128145 -0.156263 -0.0719376 0.172503 
365 1 0.0711106 -0.0704586 -0.0740626 0.124525 
3799 2 -0.0339752 -0.173397 -0.189509 0.259104 
2819 1 0.0987974 -0.181042 -0.0467337 0.211474 
382 1 0.104093 -0.096587 -0.225888 0.266814 
295 1 0.00618829 -0.00563091 -0.0130861 0.0155322 
1409 1 0.114325 -5.64404e-05 -0.0675492 0.13279 
483 1 -0.0427959 -0.0390694 -0.110239 0.124541 
2776 1 0.0462658 -0.0459667 0.0451388 0.0793157 
3266 1 0.0545271 -0.0329783 0.0599153 0.0874678 
2973 1 -0.0280556 -0.0119492 -0.100042 0.104587 
957 1 -0.051393 -0.0440701 -0.115363 0.133761 
795 1 0.00124476 -0.0382386 0.0142934 0.0408417 
4256 2 -0.268866 -0.528272 -0.0751784 0.597505 
3278 1 0.00657637 -0.100943 -0.202241 0.226129 
863 1 0.190138 0.238152 0.048497 0.308578 
419 1 0.350091 -0.405992 0.573471 0.785023 
4285 2 -0.0699975 0.0643084 -0.577746 0.585513 
107 1 -0.395781 -0.0501046 -0.222905 0.45699 
496 1 0.177695 -0.0396862 0.0623677 0.192459 
2993 1 -0.306648 0.0666921 -0.230756 0.389524 
517 1 0.249637 -0.0990785 -0.108796 0.289778 
279 1 0.0309761 0.245389 0.0556451 0.253519 
4154 2 -0.278107 0.193383 -0.10761 0.355415 
3560 2 -0.0618484 -0.203271 -0.342859 0.403357 
917 1 0.022527 -0.0915071 0.0697147 0.117223 
3322 1 0.0415069 0.134869 0.0356599 0.145547 
3863 2 -0.192241 -0.0756782 0.150526 0.25562 
274 1 -0.122332 -0.0241318 -0.0823742 0.149443 
1091 1 -0.0492796 -0.062091 0.154557 0.173699 
3396 1 -0.0303865 -0.0326557 0.110158 0.118847 
329 1 -0.326122 0.0424084 -0.163895 0.367444 
4028 2 -0.219711 0.196463 0.149763 0.330605 
2545 1 -0.134424 -0.0289623 -0.0436917 0.144283 
3327 1 -0.122404 -0.0594499 -0.00416479 0.136141 
3674 2 -0.0985886 0.0888355 -0.0638456 0.147268 
1418 1 0.188651 -0.11955 -0.214298 0.309523 
443 1 -0.145568 -0.106397 -0.0131293 0.180783 
855 1 -0.0413715 -0.0753212 -0.255565 0.269626 
3312 1 0.0954087 0.110151 -0.14218 0.203596 
647 1 0.138212 0.221072 0.155941 0.303797 
4307 2 -0.0922772 -0.152889 -0.288874 0.339615 
810 1 -5.14365e-05 -0.0166954 -0.0741757 0.0760314 
2869 1 -0.140356 -0.153083 -0.0904929 0.226546 
3476 2 0.0183053 -0.155757 -0.119074 0.196911 
177 1 -0.00260069 -0.0529229 -0.0598496 0.0799348 
363 1 0.0225774 -0.266183 -0.295648 0.398461 
1450 1 0.0264181 -0.0977259 -0.129801 0.16461 
3559 2 0.00146764 0.0956003 0.253351 0.270792 
347 1 -0.0201851 -0.0658419 -0.114463 0.133583 
319 1 -0.140495 -0.13845 -0.265315 0.330604 
4237 2 0.00409216 -0.149222 -0.162101 0.220365 
208 1 -0.00742059 -0.113266 -0.0756839 0.136427 
830 1 0.0282858 -0.116213 -0.272752 0.297824 
937 1 -0.0226786 -0.17346 0.0675308 0.187518 
268 1 -0.0503921 0.10987 0.00673235 0.121062 
854 1 0.0454127 -0.0500816 0.0232078 0.0714779 
442 1 0.0322403 -0.167842 0.0653582 0.182981 
501 1 -0.132974 -0.126533 0.0820328 0.201053 
314 1 -0.129353 0.0662195 0.111775 0.183332 
404 1 -0.0451822 -0.0379832 -0.11619 0.130324 
3291 1 0.0646406 -0.10424 -0.199964 0.234584 
3070 1 0.128288 -0.0428014 0.0683118 0.151513 
899 1 -0.0871189 -0.0691011 -0.0571869 0.12504 
474 1 0.157903 0.139948 -0.0998972 0.233449 
964 1 -0.0576983 -0.0738735 -0.103034 0.139293 
793 1 0.0278256 -0.140383 -0.022207 0.144827 
3397 1 -0.0251091 -0.120933 -0.0815104 0.147984 
1337 1 0.0619101 -0.0534923 -0.12862 0.152438 
3544 2 -0.0342871 -0.0533688 0.038132 0.0740127 
1430 1 -0.105566 -0.0960628 0.0182199 0.143889 
3200 1 0.0740307 -0.00625188 0.126772 0.146938 
757 1 -0.0624839 -0.0158838 0.0398168 0.0757754 
307 1 -0.117621 0.011359 -0.018524 0.119612 
402 1 0.0564814 0.163578 0.04203 0.178086 
819 1 -0.0123568 -0.0659974 -0.0316307 0.0742217 
3383 1 -0.099902 -0.0229562 0.0721936 0.125377 
85 1 0.0419529 0.0410512 0.205599 0.213813 
187 1 -0.314233 0.0375833 0.345546 0.468569 
3240 1 -0.02084 0.0851223 0.292842 0.305674 
113 1 -0.0326036 0.0866139 0.0513777 0.105852 
504 1 -0.0466781 0.0313828 0.245142 0.251512 
1442 1 0.0129841 -0.151484 0.00987908 0.15236 
2795 1 -0.199614 -0.000180725 0.0929927 0.220212 
491 1 0.0336268 0.0147949 -0.0754833 0.0839487 
581 1 -0.166599 -0.157746 0.0246485 0.230752 
3541 2 -0.0109975 0.0123569 -0.0361728 0.0397757 
786 1 -0.0425426 -0.176919 -0.13966 0.22938 
800 1 -0.128233 -0.0875341 -0.147933 0.214453 
367 1 0.0416547 -0.0367157 0.00733041 0.056008 
2687 1 0.0636737 -0.0256122 -0.198663 0.210184 
3545 2 0.062061 0.0715186 -0.249686 0.267039 
781 1 0.0171389 -0.197454 0.0832987 0.21499 
22 1 0.00533262 -0.0398615 0.0540665 0.0673837 
3434 1 -0.0440234 -0.125608 -0.104757 0.169379 
2814 1 -0.0264673 0.11238 -0.15224 0.191068 
1723 1 -0.000304112 -0.199038 -0.239818 0.311655 
3264 1 0.0594862 -0.0535566 -0.0746873 0.109476 
440 1 -0.166852 -0.0627613 0.148563 0.232055 
431 1 -0.0303121 0.0339968 0.0789888 0.0911802 
875 1 0.0345404 -0.032425 0.020512 0.0516252 
968 1 -0.0773183 -0.020406 0.0552224 0.0971805 
421 1 -0.168958 -0.0337535 0.0629663 0.183441 
801 1 -0.0936917 -0.158509 -0.0477579 0.190221 
2656 1 -0.140061 -0.143597 0.169654 0.262716 
3339 1 0.0161298 -0.0441951 0.0397962 0.0616207 
461 1 -0.149631 -0.027706 -0.0895371 0.176561 
2884 1 -0.0278424 -0.0559015 -0.0678217 0.0921952 
3436 1 -0.0945782 -0.197518 0.00394483 0.219029 
3192 1 0.0233821 -0.0458325 -0.0863136 0.100486 
4152 2 -0.255873 0.0299603 0.0201216 0.258406 
486 1 0.15611 0.0879324 0.0688248 0.191936 
3371 1 0.0150306 0.0754497 -0.171381 0.187856 
840 1 -0.0523077 0.0186538 -0.191696 0.199578 
3643 2 0.127763 -0.141551 -0.057062 0.199038 
31 1 -0.155782 0.0896218 -0.271038 0.32521 
1289 1 -0.0135935 0.283306 -0.0746923 0.293302 
783 1 -0.211841 0.0302648 -0.212868 0.301837 
1254 1 -0.022117 0.0206106 0.0111087 0.0322081 
654 1 0.0235789 -0.0835516 -0.0234762 0.0899331 
3420 1 -0.00918414 -0.18789 -0.146057 0.238158 
4298 2 -0.11705 0.269716 -0.0427932 0.297117 
489 1 0.358496 -0.054449 -0.0727886 0.369841 
1354 1 0.104034 -0.264649 0.17949 0.336272 
128 1 -0.155182 0.0975191 0.119618 0.21886 
907 1 -0.0252253 0.0911848 -0.00340612 0.0946709 
1641 1 0.0220883 -0.00252917 -0.145042 0.146736 
1300 1 0.145453 -0.118183 0.140442 0.234196 
868 1 -0.0729245 0.00866029 -0.0585859 0.093943 
1105 1 0.0700428 0.0337969 0.049973 0.092442 
1535 1 0.0147085 -0.0221671 0.0612261 0.066756 
573 1 -0.0992587 0.0805341 0.134648 0.185656 
3844 2 -0.0250249 -0.0467879 -0.0348415 0.0634766 
631 1 0.0285035 0.123033 0.0302948 0.129874 
3600 2 0.132261 0.135601 -0.00616948 0.189522 
1569 1 -0.226438 -0.10888 -0.128686 0.282292 
1161 1 -0.264777 -0.107845 0.0322476 0.28771 
1406 1 0.192931 -0.13985 0.0554111 0.244644 
1474 1 -0.0319287 -0.0506395 0.304801 0.310624 
63 1 -0.0922106 -0.0185842 0.06179 0.112544 
577 1 -0.172225 -0.0021453 0.208725 0.270615 
565 1 -0.0317801 0.038871 0.157673 0.165475 
3616 2 -0.0818164 0.0587071 0.157286 0.18676 
3418 1 -0.0454345 0.0082093 -0.0278141 0.053901 
4176 2 -0.148364 -0.0131617 0.125088 0.194505 
2057 1 0.0297483 0.0410802 0.0922414 0.105266 
4319 2 -0.015326 0.0500424 0.0798637 0.0954847 
655 1 -0.0796141 0.0705663 0.202824 0.229032 
1053 1 0.015023 0.0732298 0.115291 0.137406 