ITEM: TIMESTEP
2200
ITEM: NUMBER OF ATOMS
4320
ITEM: BOX BOUNDS pp pp pp
0.0000000000000000e+00 1.9309999999999999e+01
0.0000000000000000e+00 1.9309999999999999e+01
0.0000000000000000e+00 9.6549999999999994e+00
ITEM: ATOMS id type c_displacement[1] c_displacement[2] c_displacement[3] c_displacement[4] 
3196 1 0.0977454 0.0943313 0.0838822 0.159652 
381 1 0.111542 0.116771 -0.00780259 0.161673 
327 1 -0.0758272 0.184877 -0.00775498 0.199973 
484 1 -0.0102407 0.3601 -0.120441 0.379846 
728 1 -0.0246682 0.165406 -0.0521001 0.175163 
817 1 0.118974 0.0219214 0.00850658 0.121275 
4034 2 0.206534 0.167054 -0.177898 0.319704 
3679 2 0.169716 0.0442511 0.228777 0.288272 
2945 1 0.0393148 0.255931 -0.104483 0.279218 
3230 1 0.133313 0.0721789 -0.0257905 0.153777 
3651 2 0.0326883 0.282329 -0.00678737 0.284296 
66 1 0.0368573 0.136918 -0.0601433 0.15402 
400 1 0.000791328 0.14758 -0.0207234 0.14903 
677 1 0.0796954 0.116249 0.0608548 0.15352 
87 1 0.107883 0.368534 -0.0914153 0.394732 
4053 2 0.114285 0.141218 -0.0829065 0.199693 
727 1 0.249411 0.067715 -0.196384 0.324589 
688 1 0.0179285 0.209219 -0.000451499 0.209986 
58 1 0.150129 0.0974681 -0.245891 0.30414 
3514 2 -0.0310119 0.116906 -0.248965 0.276789 
18 1 0.308359 0.329721 -0.058062 0.455162 
298 1 0.114281 -0.0750557 -0.152278 0.204651 
190 1 -0.0779867 0.245116 -0.290159 0.387758 
3618 2 0.106445 0.064459 -0.139064 0.186613 
180 1 0.14979 0.0116037 0.064521 0.163507 
106 1 0.0438103 0.0727107 0.0311316 0.0904178 
217 1 0.0745243 0.0477202 -0.0232577 0.0914987 
775 1 0.0577882 0.114131 -0.156556 0.202176 
3627 2 0.0510771 0.136674 -0.138456 0.201143 
3808 2 -0.0573016 -0.0385297 0.0378669 0.0787523 
623 1 0.102971 0.107614 -0.037291 0.153539 
3118 1 -0.0221979 0.151739 -0.0527426 0.16217 
562 1 -0.0619277 -0.0255544 -0.167278 0.180195 
70 1 -0.0190769 0.101694 0.0716894 0.125877 
121 1 0.0376225 -0.0374 -0.0181474 0.0560673 
1118 1 -0.0218614 -0.177902 -0.108181 0.209357 
210 1 0.0989632 -0.054524 0.0522945 0.124504 
4214 2 0.167952 -0.0301185 0.0664418 0.183111 
226 1 0.278197 -0.0987436 0.168966 0.340137 
65 1 0.126178 -0.0596024 0.00614272 0.139682 
532 1 -0.0386217 -0.00686131 0.149595 0.154652 
3578 2 -0.0307195 -0.0273422 -0.00507454 0.0414371 
473 1 0.0478579 0.0120147 0.0144676 0.0514203 
246 1 0.00946604 0.00132613 0.0168245 0.0193501 
2936 1 0.0823434 0.20913 -0.122874 0.256152 
4071 2 0.0529149 0.138076 0.187366 0.238686 
2838 1 0.0558068 0.201256 0.0245155 0.210284 
536 1 0.0134563 0.120626 0.0369627 0.126878 
894 1 -0.0084763 0.0691996 -0.119899 0.138695 
289 1 -0.0590611 -0.0267711 0.0735831 0.0980785 
351 1 -0.0129071 0.0936868 -0.0200599 0.0966758 
197 1 -0.0240955 0.204506 -0.104043 0.230712 
303 1 -0.00665102 0.00805779 -0.0841499 0.0847961 
3135 1 0.0876395 0.230848 0.080084 0.259586 
1415 1 0.0892428 0.198971 -0.0895525 0.23574 
527 1 -0.121161 0.0580864 0.0414562 0.140615 
3002 1 0.00256368 0.272992 -0.024347 0.274087 
3189 1 0.0574421 0.168362 -0.100947 0.204538 
712 1 -0.0307339 0.0349708 -0.0726448 0.0862833 
718 1 0.0635826 0.0804745 -0.0132408 0.103413 
3469 2 0.000882967 0.177206 -0.181238 0.253476 
389 1 0.189547 -0.21708 -0.025145 0.289282 
96 1 0.13326 -0.105763 -0.150122 0.226893 
110 1 0.0730439 0.0218226 0.0483705 0.0902848 
4177 2 0.251008 -0.393893 0.0109031 0.4672 
93 1 -0.0397543 0.255696 0.0744057 0.269253 
569 1 -0.0101735 0.0635501 -0.03481 0.07317 
639 1 -0.16509 0.162381 -0.0546587 0.237928 
21 1 -0.105412 0.0353462 -0.0264288 0.114278 
3353 1 -0.199469 0.0573325 -0.0565857 0.21512 
823 1 0.148119 0.118496 -0.0830707 0.207078 
2596 1 -0.0242834 -0.206747 0.0834001 0.224254 
50 1 0.0993849 -0.00281614 0.217268 0.238937 
2495 1 0.103572 0.137142 0.0317524 0.174766 
28 1 -0.0310396 0.128149 -0.138968 0.191566 
3055 1 0.13223 0.135586 -0.0567015 0.197695 
12 1 0.0860645 0.127243 -0.0465825 0.160523 
3006 1 0.185216 -0.0605274 0.0848988 0.212547 
594 1 0.104357 0.11346 0.0532973 0.163108 
232 1 -0.191962 -0.136593 0.0152197 0.23609 
4170 2 0.0922103 0.081091 -0.107874 0.163448 
738 1 0.0836364 0.0531332 -0.018335 0.100769 
2453 1 0.0169363 -0.000574199 0.147366 0.148337 
3167 1 0.0586197 -0.0613717 0.0985642 0.130068 
339 1 0.0820392 0.10235 0.0156235 0.132098 
390 1 0.207095 -0.0146817 0.0675562 0.218329 
203 1 0.0343356 0.0107653 0.104365 0.110394 
3582 2 0.0616734 0.222543 -0.102197 0.252533 
3632 2 0.0603263 0.0829697 -0.0981027 0.141941 
231 1 0.152225 -0.00633538 0.169549 0.227946 
323 1 0.077442 -0.00378365 -0.0155082 0.0790701 
3244 1 0.0401536 0.0957565 -0.109556 0.150944 
118 1 0.134742 -0.106419 0.0219515 0.173097 
3337 1 -0.00760413 0.212199 0.0149073 0.212858 
608 1 0.0952821 0.00444496 -0.0993926 0.137758 
2960 1 -0.0448837 0.0135653 -0.0331421 0.0574192 
553 1 0.0162296 0.0612139 -0.399664 0.40465 
2735 1 -0.110293 0.09067 -0.150031 0.207111 
2768 1 0.168507 0.102475 -0.0169321 0.197946 
29 1 -0.020535 0.33591 -0.0297084 0.337845 
753 1 0.110397 0.0021939 -0.0771837 0.13472 
3467 2 0.00904328 0.0743791 -0.101448 0.126118 
3251 1 -0.0411268 0.0135177 -0.182006 0.187084 
3916 2 -0.0618266 -0.0400845 -0.174435 0.189359 
4228 2 -0.032398 0.01823 -0.162821 0.167011 
4187 2 0.0430435 0.0406131 -0.340973 0.34607 
437 1 0.0198016 0.0256578 -0.118911 0.123249 
53 1 0.231315 0.15395 -0.22734 0.359014 
593 1 -0.0479879 -0.0229564 0.0510109 0.0737018 
609 1 0.178461 -0.0538374 -0.211239 0.281725 
3040 1 0.0614702 0.0533727 -0.123698 0.148082 
1133 1 -0.0286634 0.0177217 -0.0547168 0.0642618 
546 1 -0.0621751 0.0759384 -0.0549657 0.112488 
233 1 -0.0783834 0.015877 0.158741 0.177749 
725 1 -0.07233 0.100212 -0.0812656 0.147913 
167 1 -0.0890555 0.153852 0.0232959 0.179288 
610 1 -0.00916716 -0.0761323 -0.0374895 0.0853559 
89 1 -0.14079 0.100885 -0.00728587 0.173357 
3149 1 0.00294566 0.013362 0.0828173 0.08394 
550 1 -0.0343293 -0.178136 0.153021 0.237332 
147 1 0.0463964 0.0723503 0.113453 0.142333 
247 1 0.0324827 -0.034852 0.123039 0.131941 
3554 2 -0.0350559 -0.010663 -0.00371616 0.0368296 
3786 2 -0.119504 0.0755958 -0.00131659 0.141413 
5 1 0.0908352 0.0838194 0.0499436 0.133308 
2591 1 0.0336399 0.171551 -0.0896897 0.196483 
3232 1 -0.0211365 0.0219753 -0.0557162 0.0635135 
1215 1 0.23958 -0.0523083 -0.111936 0.269563 
859 1 0.189912 0.0492105 -0.0357022 0.199406 
3152 1 -0.00941981 -0.00535356 0.0407042 0.0421215 
59 1 -0.0168856 -0.124982 0.153454 0.198629 
3478 2 0.171847 0.0107818 0.024032 0.173854 
988 1 -0.0223202 0.171243 -0.135984 0.219805 
2461 1 0.0766008 -0.100485 -0.0170965 0.127503 
23 1 0.0535221 0.0730183 -0.0789162 0.1201 
3743 2 -0.0143194 0.121741 0.00138908 0.122588 
3023 1 0.0542503 0.147654 -0.0727609 0.173318 
151 1 0.0404099 -0.0990316 0.0834592 0.135667 
43 1 0.097288 -0.00726855 0.00468798 0.0976717 
3730 2 0.0413992 -0.0397015 -0.0897815 0.10654 
626 1 -0.00338104 0.0813391 -0.0360664 0.0890408 
4289 2 0.0800164 -0.058933 0.113257 0.150675 
3611 2 0.0973925 -0.0867644 -0.005996 0.130573 
3346 1 0.104401 -0.0327674 -0.00218733 0.109445 
3460 2 0.173479 -0.0898365 0.00607881 0.195454 
3199 1 0.0786292 -0.0249471 -0.0227075 0.0855601 
424 1 0.0974307 0.052345 -0.0245001 0.113283 
1454 1 0.0305156 -0.0279464 -0.00351102 0.0415275 
221 1 -0.0218189 0.0717795 0.00708827 0.0753565 
2500 1 -0.0149832 -0.0471407 -0.066891 0.0831934 
3188 1 0.0299564 0.115526 0.00554606 0.119476 
3491 2 -0.0781788 0.0956537 -0.0523762 0.134182 
2931 1 -0.167451 -0.072962 -0.040914 0.187183 
691 1 -0.0243409 -0.149395 -0.116524 0.191022 
3493 2 0.050686 0.0266845 0.191939 0.200304 
920 1 -0.0626663 0.0193619 -0.00781837 0.0660535 
717 1 -0.193671 0.00985742 -0.00982 0.194171 
174 1 -0.103444 -0.185873 -0.0364162 0.215814 
529 1 -0.037352 -0.173283 0.00568848 0.177354 
825 1 0.00460415 0.157003 -0.0464665 0.1638 
140 1 0.0652529 -0.0971446 0.0616821 0.132286 
3634 2 0.0285242 0.120208 -0.0549249 0.135205 
1480 1 0.058661 -0.0519223 -0.0785823 0.11096 
2968 1 0.0298639 -0.0412206 -0.0275878 0.0578972 
3464 2 -0.0168034 0.0172587 -0.12592 0.128203 
98 1 0.0955841 -0.338888 -0.00768153 0.352194 
40 1 0.0719463 -0.0926251 -0.0625036 0.1329 
133 1 0.13491 0.0755631 0.00419603 0.154687 
216 1 -0.0215839 -0.0143204 -0.0869876 0.0907622 
1130 1 0.0191575 -0.191475 -0.00730543 0.19257 
3041 1 -0.0354289 -0.289341 -0.235164 0.374534 
604 1 0.0623898 -0.132031 0.00341187 0.146069 
721 1 -0.564578 -0.275021 -0.179788 0.653229 
3164 1 0.0575609 -0.0482877 -0.0847209 0.113237 
64 1 -0.00957007 -0.125913 -0.184482 0.22356 
193 1 0.0580295 -0.126428 -0.122582 0.185412 
44 1 0.0107017 -0.0661105 -0.0605548 0.0902885 
2996 1 0.0391606 -0.159771 -0.227737 0.280935 
4212 2 -0.0305667 -0.0433383 -0.190936 0.198164 
3279 1 0.0897574 -0.0509878 -0.161229 0.191444 
178 1 -0.0219641 -0.106882 -0.26279 0.284543 
354 1 0.00532101 0.0470722 0.113101 0.122621 
257 1 0.0467145 -0.0188546 -0.0235869 0.0556245 
563 1 -0.00334427 0.0853719 0.137517 0.161897 
949 1 0.00517095 0.0677694 0.0184158 0.0704171 
330 1 0.0644456 0.211146 -0.00272299 0.220779 
600 1 -0.104768 0.0767518 0.0195845 0.131342 
338 1 -0.0403673 -0.0242253 0.0422519 0.0632583 
4101 2 0.000845281 -0.145987 -0.0169548 0.146971 
3841 2 -0.0723123 -0.158913 0.072805 0.189164 
103 1 -0.0443971 0.0172339 -0.0116252 0.049023 
2981 1 -0.0375762 -0.107797 -0.0490778 0.124261 
3608 2 0.0258126 0.0649914 -0.000170465 0.06993 
78 1 0.0928566 0.0527564 0.0973042 0.144477 
4217 2 -0.0801052 -0.0129122 0.209202 0.224386 
479 1 -0.112176 0.114801 0.0672327 0.17402 
3335 1 -0.0361652 -0.0513361 -0.00660654 0.0631424 
1457 1 -0.068889 -0.0442039 0.0635666 0.103636 
3037 1 -0.0568499 0.169519 -0.0415956 0.183572 
4253 2 0.111222 -0.0198193 -0.0763877 0.136375 
387 1 0.0639982 -0.00274026 0.0231738 0.0681198 
3736 2 -0.00353185 0.265863 0.126671 0.294518 
508 1 -0.137448 -0.00623933 -0.00645579 0.137741 
3537 2 -0.0077755 0.00402046 -0.27203 0.272171 
747 1 -0.118884 0.020356 -0.00963493 0.120999 
497 1 -0.039318 -0.0288651 -0.00968932 0.0497291 
958 1 -0.149428 -0.105638 -0.0746924 0.197654 
3130 1 -0.064355 0.0567799 -0.193805 0.211958 
4163 2 -0.134685 0.0175791 -0.0184931 0.13708 
3394 1 -0.131297 0.0545005 -0.0644854 0.156101 
4204 2 -0.0638433 -0.0998981 0.0441447 0.126508 
86 1 0.303526 0.0330979 -0.0436572 0.308431 
759 1 0.00950993 -0.0350512 0.0539545 0.0650393 
3411 1 -0.19344 0.049311 -0.0444288 0.20451 
835 1 -0.0711054 0.165953 0.0497575 0.187276 
3057 1 0.0721887 0.110517 0.0921174 0.160968 
3620 2 -0.143521 0.169691 0.0450354 0.226763 
241 1 -0.139539 -0.0109803 -0.000205914 0.13997 
704 1 0.170447 0.13676 -0.17008 0.276916 
3599 2 -0.291518 0.181601 -0.135416 0.369187 
157 1 0.111065 0.126194 -0.0156973 0.168839 
54 1 0.118951 -0.0960509 -0.0333823 0.156491 
493 1 -0.048267 0.24948 -0.14284 0.291502 
204 1 -0.0350305 0.0597534 -0.0540438 0.0878541 
254 1 -0.0452281 0.220437 -0.264833 0.347526 
195 1 0.083263 0.0162814 -0.11832 0.145593 
67 1 0.0902765 0.0225077 -0.070146 0.11652 
2988 1 -0.115746 0.242089 -0.235443 0.356984 
3030 1 -0.176744 0.176392 -0.183629 0.309955 
4050 2 0.175159 0.216041 -0.102579 0.29644 
674 1 0.0665806 -0.0556356 -0.16352 0.185114 
2004 1 -0.135837 -0.0285446 -0.018266 0.140001 
143 1 0.0329342 0.146203 -0.000231549 0.149867 
2934 1 0.0562243 0.0336086 -0.0224676 0.0692496 
3479 2 0.0605593 0.491049 -0.0597754 0.498367 
3216 1 -0.154209 0.0772475 -0.0090653 0.172713 
234 1 0.0182876 -0.0249687 -0.111013 0.115246 
1036 1 0.110831 -0.13499 -0.106 0.204308 
3369 1 -0.0163245 0.0871254 0.147674 0.172235 
3607 2 -0.092327 0.0333461 0.00305575 0.0982119 
3139 1 0.0502077 -0.0457812 -0.0411836 0.0794533 
644 1 -0.212826 -0.0235801 0.00385083 0.214163 
4269 2 0.0787485 0.255183 0.0784005 0.278328 
4089 2 0.160866 0.167191 0.0841824 0.246815 
214 1 0.0481114 0.019628 0.103669 0.115962 
640 1 -0.0834678 0.000385846 0.133216 0.157206 
199 1 0.0120076 -0.145575 0.0691829 0.161624 
245 1 0.0590704 -0.0754238 0.320607 0.334614 
2758 1 -0.0600741 0.0864542 0.0920817 0.139865 
3056 1 -0.0147489 -0.157609 0.148679 0.217171 
3468 2 -0.0482296 0.0242825 0.159665 0.168548 
1102 1 0.0204932 0.296472 -0.110165 0.316942 
249 1 -0.199524 0.0438311 0.0540049 0.211299 
3096 1 -0.110312 0.239463 0.1272 0.292731 
240 1 0.054111 0.167202 -0.00848951 0.175945 
181 1 -0.132031 -0.00268787 0.0219787 0.133875 
46 1 -0.110467 -0.15234 -0.0630031 0.198444 
3211 1 -0.0571346 0.0956287 0.031489 0.115762 
2684 1 -0.198574 0.0950037 0.0649848 0.229522 
3603 2 -0.114621 -0.335878 0.149809 0.385221 
3007 1 -0.109624 0.0787517 -0.0376317 0.140126 
2939 1 -0.181209 0.0392966 0.0484284 0.191641 
3701 2 0.174451 0.0105897 0.0844975 0.194126 
3513 2 -0.0013177 -0.0853968 0.0443131 0.0962185 
312 1 0.0414794 0.013285 -0.149047 0.15528 
587 1 0.0249127 0.0548854 0.11883 0.133242 
134 1 -0.107384 0.13682 -0.017843 0.174841 
135 1 -0.111967 -0.0772575 -0.164621 0.213554 
3512 2 0.0366308 0.0969172 0.0454517 0.11314 
1179 1 0.170943 0.282398 -0.117033 0.350239 
559 1 0.0207196 0.119291 -0.159804 0.200492 
2995 1 -0.0752333 -0.00506137 -0.180282 0.195415 
3003 1 0.0106868 0.160025 -0.00270218 0.160404 
191 1 0.0835591 0.153934 -0.0387503 0.179386 
685 1 0.0497124 -0.0339761 -0.142885 0.155054 
602 1 -0.0298305 0.0752148 -0.0942682 0.124232 
3092 1 0.0796095 0.107974 -0.0191085 0.135503 
4195 2 -0.0419036 -0.0471247 -0.194858 0.204808 
182 1 -0.027996 0.00285565 -0.228063 0.229793 
540 1 -0.115129 0.18867 -0.227179 0.316956 
427 1 -0.0694038 0.186787 -0.112148 0.228655 
4173 2 -0.0130601 0.0104462 -0.176458 0.177248 
2950 1 -0.0518364 0.0311863 -0.0761731 0.0972725 
6 1 -0.0963958 0.0641044 -0.14801 0.187906 
690 1 0.0764772 -0.00587719 -0.0380078 0.0856031 
902 1 0.125922 0.0578296 -0.0717723 0.156051 
742 1 -0.0851569 0.057794 -0.0707493 0.124889 
3115 1 -0.169713 0.193919 -0.0585405 0.264262 
154 1 -0.109954 0.034733 -0.148773 0.188227 
1278 1 0.0789625 -0.013247 0.0422207 0.090516 
215 1 0.0412892 0.107773 -0.0617901 0.130912 
2926 1 -0.139585 -0.0782446 0.0898527 0.18352 
710 1 -0.186944 0.00354463 -0.121956 0.223235 
3518 2 -0.120467 0.242322 0.15864 0.313686 
580 1 -0.0457876 0.134208 0.251501 0.288723 
446 1 -0.0603133 0.160377 0.063731 0.182812 
3408 1 -0.107659 0.186774 0.163563 0.270606 
80 1 -0.162159 -0.046204 0.0942378 0.193161 
95 1 -0.161132 0.019607 0.138106 0.213122 
2977 1 0.0636345 0.147421 -0.0113372 0.160968 
2994 1 0.0307792 -0.055471 0.0791456 0.101432 
3078 1 0.0875267 0.15149 0.136005 0.221602 
205 1 -0.304616 0.0663442 0.107315 0.32971 
694 1 -0.167449 0.216826 0.0537913 0.279188 
861 1 -0.159649 -0.13286 -0.0344591 0.21054 
3549 2 -0.0740801 -0.036584 -0.149318 0.170652 
3401 1 -0.0320177 0.128975 0.0284642 0.135904 
4014 2 -0.047084 -0.0434422 0.105216 0.123185 
1324 1 0.0456542 0.03857 0.0115575 0.0608731 
332 1 -0.10601 -0.0853274 -0.140148 0.195347 
1077 1 -0.0222017 0.0255249 -0.00527 0.0342375 
512 1 0.140891 0.0509977 0.0257716 0.152037 
300 1 -0.101271 0.0121455 0.0483074 0.112858 
393 1 -0.0167004 -0.0325067 0.00187162 0.0365936 
2740 1 0.0616086 0.149089 0.0412988 0.166519 
3393 1 -0.142144 0.00644811 0.0425037 0.148502 
286 1 -0.129851 0.0398815 -0.00651297 0.135994 
3197 1 -0.123889 0.117563 -0.103662 0.199788 
277 1 -0.208837 -0.139182 -0.0393702 0.254036 
364 1 -0.0603144 -0.0480735 0.0814754 0.112192 
1367 1 -0.152682 -0.0216443 -0.0587925 0.165035 
411 1 -0.213995 0.0898308 0.0926834 0.249907 
356 1 0.0507819 -0.0490919 0.0348363 0.0787552 
3434 1 -0.210305 -0.13677 0.118959 0.277643 
3658 2 -0.0148176 0.158159 0.125852 0.202664 
3389 1 -0.090908 -0.124343 -0.0117282 0.154477 
357 1 -0.0711553 -0.0850391 0.0278191 0.114318 
265 1 -0.0505685 -0.0198559 0.0124996 0.0557465 
362 1 -0.0606803 -0.0745569 -0.124159 0.157023 
478 1 -0.104998 0.0764578 0.0557006 0.141326 
4159 2 -0.0856702 0.0122628 0.0801908 0.117984 
966 1 0.0390825 -0.0170509 -0.0103202 0.0438712 
3612 2 -0.18092 -0.0185471 -0.115507 0.215448 
2696 1 0.0473645 0.0307977 0.0522898 0.0769813 
309 1 -0.00808593 0.0877761 -0.332974 0.344444 
780 1 -0.0234324 0.0715972 -0.2379 0.249543 
2710 1 0.0179622 0.057501 0.0894679 0.107859 
3313 1 -0.0064654 0.0293834 -0.229115 0.231082 
924 1 0.0136724 0.256683 -0.00655857 0.257131 
3290 1 -0.168053 0.0280338 -0.0875998 0.191576 
1354 1 0.00366359 -0.0699042 -0.122233 0.140857 
903 1 0.0404738 0.071656 -0.116475 0.142615 
3333 1 0.18975 -0.0301858 0.141436 0.23858 
3303 1 -0.0530237 0.066855 0.14071 0.164561 
3526 2 -0.0263213 0.062501 -0.0100019 0.0685509 
3249 1 -0.00963182 0.137264 -0.0319137 0.141254 
92 1 0.00527635 -0.0870668 0.0723524 0.113328 
3379 1 0.0152602 0.0552236 0.0201516 0.0607339 
1449 1 0.0264561 0.0638648 -0.00428023 0.0692601 
3162 1 0.0612556 0.0131388 -0.0207222 0.0659871 
462 1 -0.0823431 -0.136969 0.158721 0.225241 
2966 1 0.0871172 -0.069311 -0.106603 0.154135 
3022 1 0.000572097 0.0789159 -0.103182 0.129902 
750 1 0.030338 -0.0745197 0.0294513 0.0856794 
449 1 0.0760364 -0.0150738 -0.134066 0.154863 
4006 2 -0.094517 -0.052327 0.0981863 0.145987 
886 1 0.0877958 -0.0510041 -0.0465025 0.111678 
287 1 0.0848775 0.146512 0.0117947 0.169732 
3647 2 -0.0634624 -0.0628634 -0.0511335 0.102927 
2890 1 0.173008 0.0740956 0.124876 0.225867 
1285 1 0.0430412 0.0605042 0.0846632 0.112611 
3305 1 0.074551 0.0596583 0.013663 0.0964554 
3209 1 0.121333 0.014558 -0.139149 0.185192 
4318 2 0.0400024 -0.0211658 0.0939525 0.104285 
3409 1 0.147582 0.00176049 0.0333264 0.151309 
943 1 0.203611 0.0168902 0.138304 0.24672 
3883 2 0.0179362 0.0896332 0.0984292 0.134328 
3531 2 -0.183491 -0.111755 0.0158888 0.215431 
3227 1 0.0471125 0.00935692 0.00748634 0.0486126 
373 1 0.101868 0.0231269 0.0425134 0.11278 
4297 2 -0.152172 0.0280281 -0.00011172 0.154732 
3404 1 -0.040459 -0.170815 -0.000628118 0.175542 
398 1 0.032174 -0.0119082 0.0710656 0.0789132 
3221 1 -0.0318124 0.088193 -0.143033 0.171022 
836 1 -0.236396 -0.300854 0.177163 0.421643 
394 1 0.0274149 0.0850429 -0.203035 0.221826 
412 1 -0.125384 0.0765806 0.0409954 0.152533 
3573 2 -0.150327 0.176417 0.111797 0.257332 
1212 1 -0.0376113 0.102564 -0.0301666 0.113331 
901 1 -0.146247 -0.200787 -0.15564 0.293134 
3360 1 -0.35231 0.0692578 -0.235975 0.429655 
3319 1 -0.202388 0.125459 -0.108554 0.261696 
3588 2 0.00210665 0.0738027 -0.0865715 0.11378 
2365 1 -0.101123 -0.00909419 -0.203322 0.227263 
306 1 -0.212834 0.0140251 -0.00879726 0.213477 
3093 1 -0.0808296 0.0307166 0.0990827 0.131508 
2745 1 -0.071844 -0.0783479 -0.0314585 0.110858 
355 1 -0.180272 -0.0984856 -0.0337492 0.208174 
3097 1 0.0526466 0.210537 -0.231795 0.317531 
468 1 0.042929 0.240576 -0.00908927 0.244546 
155 1 -0.232388 0.12103 -0.068553 0.270836 
228 1 0.0171151 -0.00741342 -0.134652 0.135937 
3324 1 0.116449 0.0815938 -0.0551896 0.152525 
951 1 0.0970937 0.176475 0.152124 0.252413 
2737 1 -0.172269 0.00540565 0.0221505 0.173771 
2959 1 -0.0141556 0.103901 -0.10161 0.146015 
4284 2 -0.0166775 -0.111126 0.159584 0.195177 
4225 2 0.113533 -0.1731 0.00470692 0.207064 
3483 2 0.0416761 0.167036 0.0423395 0.177286 
353 1 0.0456173 -0.0824815 0.0923206 0.131936 
100 1 0.0496907 -0.079362 0.0105774 0.0942304 
716 1 0.191289 -0.0138984 -0.0525756 0.198869 
3094 1 0.0559557 -0.0424951 0.0441206 0.0829669 
3617 2 0.148532 -0.116588 0.0656372 0.199907 
206 1 0.0303076 -0.0587143 -0.00038908 0.0660763 
71 1 0.130206 0.0256391 0.0169341 0.133782 
3676 2 0.17555 -0.198932 -0.168299 0.314191 
4185 2 0.146084 -0.139198 0.0887027 0.22042 
3561 2 0.115682 0.113962 -0.0795682 0.180833 
601 1 0.0306073 0.0757998 0.0333227 0.088277 
772 1 -0.0280517 0.0169454 0.00380881 0.0329932 
763 1 0.12351 -0.019428 0.0120605 0.125609 
388 1 0.183521 -0.0400297 -0.0019853 0.187846 
1313 1 0.13868 -0.096325 -0.122628 0.208682 
444 1 -0.0310311 0.138078 -0.210636 0.253764 
3668 2 0.124937 -0.0635969 -0.0597393 0.152389 
838 1 0.116074 0.00293004 0.0324865 0.12057 
460 1 0.165011 -0.128957 0.0436724 0.213929 
499 1 0.090223 -0.0963973 0.045749 0.139734 
3548 2 -0.345929 -0.334687 -0.146246 0.503061 
3281 1 0.000905835 0.0547119 -0.026697 0.0608846 
4264 2 -0.0604119 0.0428672 -0.119578 0.140663 
291 1 0.0799169 0.0535856 -0.101093 0.139563 
482 1 -0.0572523 0.135126 0.0227946 0.148514 
1314 1 -0.0786756 0.0835357 0.0387993 0.121134 
3672 2 -0.0214068 0.200917 0.0107946 0.202343 
375 1 0.115568 -0.150013 -0.0295835 0.191664 
94 1 0.121432 -0.0919348 -0.106327 0.18575 
37 1 0.000680671 0.112952 -0.0263687 0.115991 
3321 1 0.0553514 -0.0414443 0.0812293 0.106675 
4309 2 -0.0441178 0.0831826 -0.00110138 0.0941644 
3339 1 -0.0444226 0.138261 0.223053 0.266162 
4257 2 0.448231 0.407776 -0.11752 0.617255 
3380 1 0.00439233 0.11326 0.0287626 0.116937 
392 1 -0.142745 0.0481372 0.0590445 0.161801 
436 1 -0.0158469 0.0920648 -0.0410929 0.102057 
792 1 -0.105374 0.0038938 -0.23862 0.26088 
3293 1 -0.0333998 -0.0743561 -0.0510799 0.0961953 
318 1 -0.0606753 -0.157435 -0.131854 0.214132 
3392 1 -0.130785 -0.0804007 0.0659842 0.167101 
3095 1 -0.300807 0.0593222 0.0598261 0.312383 
3150 1 -0.154032 0.270073 -0.0323195 0.312586 
3320 1 -0.23892 -0.109468 0.0881029 0.277179 
3350 1 -0.0807858 -0.10987 -0.0140002 0.13709 
3314 1 -0.0745041 -0.0934233 -0.205055 0.237331 
2861 1 -0.0679361 -0.173444 -0.0375944 0.19003 
3180 1 -0.0575038 0.0296028 0.0904085 0.111161 
1338 1 -0.0376631 -0.096358 -0.0558959 0.117591 
2479 1 -0.186993 0.0169337 -0.132638 0.229882 
3257 1 0.0765211 -0.0963686 -0.212391 0.245463 
2961 1 0.133402 -0.0497842 -0.149282 0.2063 
771 1 -0.173498 0.15263 0.0466053 0.235732 
614 1 0.0710935 -0.184517 0.0507925 0.204158 
635 1 -0.165534 -0.0641785 -0.115477 0.211791 
3192 1 0.0865387 -0.0310463 0.0169774 0.0934936 
4271 2 0.0483328 0.0955702 0.129336 0.167921 
1172 1 0.143455 0.0121143 0.0734149 0.161604 
652 1 0.09138 -0.0523516 -0.043286 0.113863 
3568 2 0.0596914 -0.056982 0.0360108 0.0900377 
3433 1 0.134368 -0.0317595 -0.0398264 0.1437 
3560 2 0.146676 -0.0240103 0.0401506 0.153956 
248 1 0.136422 -0.0409533 0.146688 0.204464 
3419 1 -0.0293512 0.157565 -0.00641461 0.160404 
325 1 0.160647 0.0384056 0.0177294 0.166123 
292 1 0.032578 0.0974614 0.04437 0.111932 
3444 1 0.0896007 -0.0691625 -0.0277685 0.116545 
908 1 0.215185 -0.0464555 -0.0708923 0.231275 
3504 2 0.330407 -0.108278 -0.00022614 0.347696 
423 1 0.271492 -0.128823 -0.0477811 0.30428 
502 1 0.106321 -0.0469617 0.122851 0.169121 
3435 1 -0.0204554 -0.0960865 0.019654 0.100186 
3312 1 0.0125643 -0.108559 -0.106734 0.152758 
439 1 0.171927 -0.0935426 0.0707481 0.208121 
3082 1 0.0848446 0.0572124 0.0636813 0.120529 
4182 2 -0.185756 -0.267791 0.0217377 0.326634 
874 1 0.116146 -0.0945858 0.0819997 0.170764 
980 1 -0.0989027 -0.159424 -0.0793664 0.203708 
810 1 -0.0161547 0.19758 -0.193694 0.277158 
225 1 0.0801224 -0.0319474 0.0244313 0.08965 
3331 1 -0.189383 0.0231736 0.0486853 0.19691 
4307 2 -0.0378862 0.008934 -0.283298 0.28596 
430 1 -0.201959 -0.0988998 -0.0643814 0.23391 
4280 2 0.301341 0.368661 -0.459119 0.661444 
416 1 0.0938904 -0.242014 -0.0740896 0.269954 
365 1 0.0274171 -0.0800779 0.0226007 0.0876068 
3799 2 -0.0139746 -0.0729813 -0.0644881 0.0983884 
2819 1 -0.0319806 -0.0687577 0.131802 0.15206 
3482 2 -0.0341794 -0.0933024 -0.126277 0.160685 
295 1 -0.0150398 0.0279328 -0.0734853 0.0800408 
654 1 0.0546399 0.203157 -0.0324194 0.21286 
382 1 -0.149448 0.0330057 -0.176188 0.23338 
2776 1 -0.0241145 -0.0485919 0.0752101 0.0927321 
2973 1 -0.207685 0.0633027 0.0964081 0.23756 
957 1 0.0561901 -0.0800728 -0.196346 0.219364 
795 1 0.0107408 0.0137195 0.217413 0.21811 
490 1 -0.0894362 -0.0703973 -0.115722 0.162315 
3266 1 -0.100432 -0.0802757 -0.0621266 0.142796 
107 1 -0.343579 -0.112185 -0.00247746 0.361439 
4285 2 0.114952 0.216354 -0.34442 0.422668 
496 1 0.0486863 -0.0572442 0.0552447 0.0932697 
2993 1 -0.30744 0.230733 -0.0156014 0.384709 
4256 2 -0.346788 -0.577291 0.22709 0.710701 
471 1 -0.177081 0.2692 -0.21153 0.385449 
517 1 0.13025 -0.0270012 -0.0182721 0.134268 
279 1 -0.118564 0.330366 0.0983086 0.364505 
1337 1 -0.171762 -0.0663257 -0.030012 0.186553 
917 1 0.0607028 -0.154024 -0.0195547 0.166705 
4028 2 -0.0598567 -0.0311837 0.204827 0.21566 
3322 1 0.14232 0.152572 0.0133647 0.209074 
3863 2 -0.0572546 -0.203259 0.0317256 0.213538 
274 1 0.0855203 -0.0249793 -0.180502 0.201293 
1091 1 0.0813172 -0.0756631 0.134297 0.174279 
3396 1 0.161723 0.0498317 0.0962776 0.194697 
349 1 -0.0150963 -0.132043 0.0139434 0.133632 
187 1 0.0467468 0.0135414 0.249029 0.25374 
3420 1 0.016397 -0.101078 -0.13156 0.166714 
2545 1 0.00892756 4.32127e-05 -0.025346 0.0268724 
3327 1 0.0374406 -0.0822686 0.0129038 0.0913041 
3674 2 0.0481887 0.142711 0.076865 0.169106 
1418 1 0.169814 0.0345298 -0.0929845 0.19666 
443 1 -0.0572173 -0.00493286 -0.0730728 0.0929397 
855 1 0.0378741 -0.127536 -0.163288 0.210625 
3476 2 -0.0190431 0.00977262 -0.12139 0.123263 
2869 1 -0.127769 -0.109375 -0.0189962 0.169259 
177 1 0.034412 0.169786 -0.0691394 0.186526 
363 1 0.145103 -0.0952899 -0.18937 0.256896 
1450 1 0.0496868 0.0673576 -0.100508 0.130796 
3559 2 0.0144732 0.11291 0.027744 0.117166 
347 1 -0.0254298 -0.0405251 -0.102076 0.112732 
319 1 -0.252631 0.0402007 -0.111774 0.279163 
830 1 0.0105768 0.0713107 -0.079828 0.107562 
937 1 0.054041 0.0708721 -0.0468667 0.100696 
268 1 0.0244826 0.0841875 0.0635108 0.108262 
854 1 0.00939919 0.105491 -0.0296603 0.109984 
442 1 -0.191628 0.0580379 -0.0587188 0.208657 
875 1 0.0286933 0.0720897 0.0363469 0.0856815 
1289 1 0.024487 0.042636 0.121991 0.131526 
501 1 0.10553 -0.0794561 0.118788 0.177653 
3291 1 0.123857 -0.0898466 -0.113731 0.190651 
474 1 -0.201479 0.0769162 -0.154338 0.265198 
3070 1 0.126421 0.0551937 -0.162864 0.213432 
964 1 -0.267481 0.11988 -0.0326409 0.294928 
793 1 -0.256896 -0.0531717 -0.0953985 0.279148 
899 1 0.0397645 -0.000326118 -0.0153609 0.0426295 
3397 1 -0.0655453 0.0216707 -0.225267 0.235608 
3223 1 -0.172117 0.077037 -0.0863907 0.207418 
3678 2 -0.0205179 0.107944 0.162141 0.195864 
3278 1 -0.0986617 -0.0372164 -0.0243487 0.108222 
3544 2 -0.0302559 0.227045 0.0426755 0.232994 
1430 1 -0.0997195 -0.0966271 0.0948224 0.168143 
3200 1 -0.0114553 0.0745957 0.15034 0.168219 
757 1 -0.189689 -0.0787848 0.0375737 0.208808 
822 1 0.135005 0.102284 0.215111 0.27379 
3643 2 -0.0385025 -0.124798 -0.0971532 0.162775 
483 1 -0.108934 -0.0467858 -0.0406806 0.125341 
3383 1 0.0811407 0.0947494 -0.0344402 0.129412 
329 1 -0.151459 0.130781 -0.189752 0.27577 
3240 1 -0.0735341 0.104233 0.160971 0.205386 
113 1 0.109879 0.0793499 -0.0304087 0.138905 
504 1 0.0387389 -0.0697821 0.213716 0.228133 
85 1 0.11269 0.06328 0.141039 0.191299 
2795 1 -0.118925 -0.0507455 0.0216548 0.1311 
404 1 0.0215948 0.152606 -0.098579 0.182956 
3234 1 -0.179801 0.0463114 -0.0658194 0.196991 
581 1 -0.0520439 -0.0336407 -0.0348779 0.0711107 
3541 2 -0.0303764 0.0816122 -0.177868 0.198042 
786 1 0.0822784 -0.0199454 -0.0387715 0.0931171 
800 1 0.0553889 -0.133837 -0.132156 0.196075 
367 1 -0.153761 0.0340029 0.0493108 0.165015 
2687 1 -0.00440757 -0.138458 -0.0528319 0.148261 
3545 2 0.105268 0.0983971 -0.246225 0.285289 
491 1 -0.0270481 -0.063929 -0.157947 0.172528 
4154 2 -0.124675 -0.0749488 -0.105791 0.179869 
4237 2 0.0177365 -0.0847796 -0.175511 0.19572 
2814 1 -0.142817 0.129173 -0.121777 0.227842 
1723 1 -0.00990172 0.0516996 -0.321539 0.32582 
3264 1 0.1635 -0.0914642 -0.0306658 0.189838 
440 1 -0.0102855 0.0968591 0.00693293 0.0976501 
31 1 -0.0596597 -0.0865775 -0.0783782 0.131141 
314 1 -0.0816805 -0.15057 0.215663 0.275416 
431 1 -0.0614675 -0.0663346 0.00974702 0.0909589 
968 1 0.341797 -0.0923677 0.280668 0.451809 
801 1 -0.0543502 -0.412076 -0.146272 0.440631 
2656 1 0.0907936 0.0663897 0.0151825 0.113497 
421 1 -0.115634 -0.0721432 -0.197412 0.23989 
1254 1 0.0145172 -0.0568847 0.0308425 0.0663166 
819 1 -0.0499791 0.0607876 0.0359278 0.0865092 
419 1 0.215514 -0.0571033 0.47459 0.52435 
308 1 0.0485803 -0.0368263 -0.128167 0.141926 
2884 1 -0.046957 -0.0695795 -0.130308 0.155005 
840 1 -0.102291 -0.037602 -0.206046 0.233093 
4152 2 -0.204777 0.168007 0.0529311 0.270114 
461 1 -0.00400671 0.163624 -0.155923 0.226055 
3436 1 -0.0573733 -0.0358834 -0.0462952 0.0819913 
3371 1 -0.131363 0.124467 -0.138754 0.228038 
486 1 -0.053473 0.108739 0.112877 0.165604 
783 1 -0.279531 -0.0632368 -0.000941714 0.286596 
3378 1 0.119774 0.382211 0.184486 0.440983 
647 1 0.0856227 0.169282 0.175145 0.258192 
402 1 0.110431 -0.103744 0.151991 0.214614 
307 1 -0.154253 0.116525 -0.0776552 0.208333 
2873 1 -0.0178437 0.0154236 0.163152 0.164848 
4098 2 -0.13058 -0.168071 0.510707 0.553282 
781 1 -0.0299646 -0.130683 0.0375237 0.139227 
4143 2 -0.228573 0.0913952 0.207002 0.321634 
1304 1 0.360049 -0.0710637 0.110179 0.383177 
3535 2 0.113009 0.102168 0.0154329 0.153126 
3341 1 -0.138848 0.130635 -0.223783 0.293977 
128 1 0.0166377 0.048386 0.1127 0.123771 
907 1 0.036911 0.123122 0.121029 0.176549 
1641 1 -0.0459257 0.161051 -0.105415 0.197886 
1300 1 0.0856128 0.0718267 0.0371733 0.117773 
1544 1 0.0823357 0.111596 0.0424414 0.145031 
345 1 0.0290318 -0.0591336 0.112584 0.130441 
891 1 -0.22388 -0.0198183 0.132042 0.260673 
1269 1 -0.0364684 -0.0354393 0.145813 0.154425 
1535 1 0.143542 0.0113284 -0.098477 0.174443 
573 1 0.0727845 0.0682762 0.102135 0.142796 
3844 2 0.0752813 0.159798 -0.200515 0.267225 
631 1 0.128286 0.107164 0.0708822 0.181565 
606 1 0.142204 0.0984956 0.154854 0.23217 
137 1 0.185485 -0.176917 0.0956487 0.273593 
1569 1 -0.0141369 -0.0672271 -0.0565887 0.0890034 
38 1 -0.00222353 -0.00286548 -0.0450372 0.045183 
627 1 -0.0395001 0.0184259 -0.122617 0.130133 
63 1 0.0369449 0.146624 0.15418 0.215952 
577 1 0.0560921 -0.00267279 0.171877 0.180818 
565 1 0.0916338 0.0533267 0.103125 0.147903 
3616 2 -0.170349 0.203362 0.136398 0.298294 
3418 1 -0.0155395 -0.0106376 0.0671121 0.0697041 
4176 2 0.174949 0.0690469 -0.0109724 0.188401 
1612 1 0.0292152 0.140621 0.000198644 0.143624 
69 1 -0.0397038 0.0328157 0.22881 0.234536 
3687 2 -0.142103 -0.210215 0.112201 0.277439 
4319 2 -0.0548237 0.106439 0.0919451 0.150959 
655 1 -0.0383962 0.0111499 0.0924105 0.100689 