ITEM: TIMESTEP
10800000
ITEM: NUMBER OF ATOMS
4320
ITEM: BOX BOUNDS pp pp pp
0.0000000000000000e+00 1.9309999999999999e+01
0.0000000000000000e+00 1.9309999999999999e+01
0.0000000000000000e+00 9.6549999999999994e+00
ITEM: ATOMS id type c_displacement[1] c_displacement[2] c_displacement[3] c_displacement[4] 
3272 1 1.89588 2.09342 -0.962761 2.98391 
2941 1 1.95213 1.75101 -2.27124 3.4692 
3533 2 -2.20968 -2.73642 -1.02313 3.66299 
289 1 -1.09868 -0.180291 -1.65085 1.9912 
381 1 0.0848476 -0.341893 0.259025 0.437246 
73 1 0.00469576 0.129172 -0.745392 0.756516 
3587 2 1.93898 -3.46096 1.91649 4.40577 
3679 2 0.713549 2.02141 0.76864 2.2773 
727 1 -1.30875 -0.743849 -0.951919 1.78109 
3020 1 1.37375 -0.490234 -0.686071 1.61189 
4187 2 -1.74454 0.485132 -3.11836 3.60596 
685 1 -0.511975 -1.05499 1.65883 2.03146 
1991 1 1.45665 0.466701 0.849985 1.74989 
134 1 0.757182 0.314801 1.51826 1.72555 
114 1 0.49267 -1.76248 -1.20643 2.19193 
823 1 -1.28801 0.642011 -1.08601 1.80293 
3661 2 -2.81347 1.14319 0.874037 3.16013 
2939 1 0.922375 1.36544 1.27826 2.08546 
2495 1 1.2271 -1.45784 -2.55655 3.18858 
2504 1 2.62922 -2.31761 1.29732 3.73727 
546 1 1.35003 2.02011 -2.56033 3.52969 
3231 1 2.9963 -2.27698 1.16725 3.94017 
3201 1 0.742415 -0.0964283 0.052561 0.750494 
997 1 -1.4938 0.00829786 -1.59141 2.18268 
2496 1 3.42061 -0.328356 -2.10834 4.03156 
3743 2 1.39698 -2.00205 -3.66316 4.4021 
5 1 0.660912 0.0670044 -3.34295 3.40831 
50 1 -1.36592 0.428369 -1.34535 1.96449 
1271 1 -1.49913 -1.46949 -1.64932 2.66965 
69 1 -1.75644 1.57876 0.0640232 2.36256 
988 1 -0.33461 -1.25959 1.44049 1.94256 
532 1 1.12762 -1.19033 -0.0519014 1.64046 
4195 2 -0.645087 1.98102 1.94712 2.85164 
81 1 -1.39529 1.25544 2.10321 2.81895 
129 1 1.49801 0.26549 -0.0247165 1.52155 
920 1 0.408447 2.41903 1.1871 2.72539 
3974 2 -1.59481 -0.948273 2.33961 2.98604 
540 1 -1.40777 2.81404 2.42699 3.97378 
3024 1 1.65087 -0.248819 1.14268 2.02312 
2453 1 0.829278 -0.351404 -0.53184 1.04596 
3232 1 -1.09673 0.651842 -1.80206 2.20796 
3035 1 0.627996 0.53064 1.66114 1.85347 
3502 2 1.45764 -0.425452 -1.67236 2.25887 
210 1 0.666064 0.28454 -0.829738 1.10139 
121 1 1.65173 2.25997 -0.547868 2.85233 
1088 1 -1.97671 0.649921 -0.855992 2.25 
3992 2 -4.58867 -3.0655 4.86213 7.35483 
599 1 0.804184 -1.09171 0.96266 1.66291 
896 1 -1.02637 1.18003 -0.776395 1.74605 
1290 1 -1.19279 1.99619 0.0651346 2.32632 
1006 1 -0.703467 -0.39896 -3.48318 3.57583 
2540 1 2.58639 0.266449 -0.917905 2.75735 
3080 1 3.39539 -2.41695 -2.54817 4.88503 
863 1 1.6326 2.84065 -4.01139 5.17938 
4142 2 4.33988 -2.34528 -2.95424 5.74999 
3353 1 -0.523407 -3.97276 0.902181 4.1074 
3135 1 0.0306945 0.191961 -0.753714 0.77838 
3017 1 1.04065 -0.229861 -0.00212174 1.06574 
3335 1 -0.157615 0.091065 -0.58845 0.615962 
53 1 -0.636111 -1.81711 -2.2502 2.9614 
3467 2 0.0646288 0.914628 -1.05527 1.39797 
49 1 -2.3601 -1.69814 -1.11942 3.11558 
3512 2 -0.254941 -0.933488 2.11167 2.32283 
659 1 2.49948 -2.56195 -0.871174 3.68374 
1025 1 0.411725 -1.76601 1.21099 2.18055 
3189 1 1.99088 -0.000790131 0.619918 2.08516 
3002 1 0.376518 0.246925 -0.708296 0.839297 
140 1 -1.43974 1.38876 -1.99457 2.82486 
2596 1 -1.84492 -0.731856 -0.93867 2.19555 
878 1 -1.54255 2.79826 -4.01497 5.13124 
2542 1 1.90045 0.581187 0.989052 2.21984 
821 1 -1.40489 -1.60469 -2.11897 3.00646 
1888 1 -2.63487 1.36769 -1.04734 3.14802 
3704 2 -4.91357 -0.192454 2.53572 5.53264 
1397 1 -1.56443 2.91904 -1.49404 3.63324 
317 1 0.378683 0.254173 -1.88829 1.94259 
220 1 3.04866 0.0668599 -1.28295 3.30828 
3831 2 6.11067 2.42207 -1.58738 6.76214 
3925 2 5.5647 1.80539 1.06871 5.94706 
167 1 0.339248 1.06874 -0.513528 1.23329 
1178 1 1.36367 1.50318 -0.419651 2.0725 
2979 1 -0.813426 0.0109872 -0.614506 1.01951 
3069 1 2.37799 0.222732 -1.34804 2.74256 
4291 2 2.59715 -0.836237 -0.440079 2.76372 
3736 2 0.551184 -2.16341 -2.54553 3.38583 
58 1 0.894558 0.746262 2.17731 2.46938 
2461 1 0.871103 -1.21035 -1.88661 2.4048 
2004 1 0.144995 0.811534 -5.53335 5.59442 
608 1 -0.87547 1.68142 1.65665 2.51756 
621 1 -3.109 1.9682 1.68883 4.04868 
3167 1 0.499799 0.134743 -0.476368 0.703478 
3627 2 0.62543 1.93187 1.87687 2.76512 
72 1 -0.490484 1.75612 -0.0937958 1.82574 
4228 2 -0.144591 5.60255 -3.2662 6.48672 
568 1 0.839408 -0.31254 1.81561 2.02453 
3052 1 1.45312 -2.11447 3.09026 4.0165 
716 1 -1.09756 -0.21235 -0.888836 1.4282 
339 1 -1.699 1.45594 -0.438245 2.28001 
231 1 1.43549 0.292818 0.16787 1.47463 
401 1 -2.26789 0.859257 1.93031 3.09964 
972 1 -0.928573 1.2857 -1.17584 1.9743 
4005 2 4.89166 -4.48302 0.144716 6.63677 
3094 1 0.352449 -0.644694 -1.40128 1.58222 
817 1 0.447416 0.921282 0.251882 1.0547 
803 1 -3.2266 1.35899 -2.21399 4.14241 
75 1 1.6535 -3.50795 -0.415957 3.90036 
2945 1 1.30402 -0.830695 2.35784 2.81956 
3392 1 -0.603833 2.62005 0.600379 2.75495 
3570 2 2.45367 -1.56258 -0.48391 2.94896 
211 1 2.32534 -1.65416 -3.86785 4.80663 
3445 1 1.29347 -0.0492311 0.45213 1.37109 
1337 1 1.15283 1.76743 -2.39803 3.19427 
78 1 -1.03758 -0.625672 -0.732607 1.41589 
3025 1 0.907851 -1.52312 0.414013 1.82085 
1374 1 1.33938 1.39623 -2.4564 3.12687 
639 1 1.67748 -1.43254 1.13735 2.48187 
437 1 0.402583 0.332329 0.182152 0.552897 
818 1 -1.69696 2.38507 0.120445 2.92963 
3149 1 0.073215 -1.50483 -0.39486 1.5575 
593 1 0.555188 0.179344 0.0180935 0.583717 
714 1 -0.737368 1.88214 -2.3117 3.07085 
766 1 -3.4524 -0.16469 0.285673 3.46811 
453 1 -0.558926 0.233721 -1.09905 1.25496 
3525 2 -2.82259 -5.00657 -1.74823 6.00742 
3631 2 -0.43187 -5.82098 1.82546 6.11577 
105 1 2.48749 -0.568097 -1.09566 2.77683 
343 1 1.58273 3.40452 -1.2085 3.94414 
1415 1 0.123632 1.12333 1.68504 2.02892 
633 1 0.621411 2.86158 -0.457776 2.96384 
8 1 -0.854023 3.50952 -0.261577 3.6214 
3622 2 -4.85878 -0.811274 -0.582443 4.96036 
589 1 -3.02868 -1.20727 -0.81205 3.36003 
2995 1 2.44478 -2.71218 -4.20905 5.57216 
206 1 0.272078 -1.02129 -0.903083 1.39019 
4098 2 -1.30494 3.80139 1.37466 4.24772 
1078 1 -2.06946 1.85989 -2.09247 3.48142 
550 1 -0.460076 1.04477 0.601314 1.29027 
2591 1 -0.267412 0.509456 0.422244 0.713683 
3152 1 1.65344 0.244143 0.117655 1.6755 
4198 2 -1.24792 -4.03285 4.31812 6.03882 
43 1 0.832679 -0.24646 -0.114347 0.875883 
379 1 -0.738856 0.274122 -0.938016 1.22512 
390 1 0.357142 -1.07503 1.0097 1.51747 
222 1 -1.99337 2.29322 -0.91361 3.17286 
25 1 -2.8716 2.76206 0.143011 3.98692 
21 1 0.0287001 3.06785 1.00517 3.22846 
348 1 -3.02574 0.671572 -2.3261 3.87516 
600 1 -0.780867 1.73158 -1.17554 2.23383 
3394 1 -1.69317 -1.17235 -4.06031 4.55273 
3545 2 0.0603827 9.23571 -4.85634 10.4348 
3055 1 -1.23857 1.50624 -0.826098 2.11784 
2768 1 -0.589073 -0.221154 -0.414414 0.753428 
614 1 -0.32813 1.53574 1.69739 2.31242 
2960 1 -0.722454 -0.395451 0.78668 1.13894 
1252 1 2.24581 2.29222 -0.223903 3.21684 
4197 2 2.65615 1.0851 2.918 4.09234 
149 1 -1.68009 -5.07119 -0.427386 5.35932 
4199 2 1.49316 -2.42452 -3.89636 4.82591 
718 1 -0.594351 2.25771 1.99457 3.07064 
4097 2 0.64527 1.37828 -5.21801 5.43541 
493 1 -0.741354 -2.64882 -1.56032 3.16235 
2968 1 1.52239 -0.797552 -0.343826 1.7527 
3790 2 -5.44235 -6.78948 -1.64756 8.85611 
973 1 -3.84163 1.89844 -0.84272 4.3672 
1480 1 -1.61075 0.382976 0.403021 1.704 
3410 1 -2.39124 1.6688 -0.492867 2.95734 
497 1 0.949732 2.55874 -2.47903 3.6871 
2921 1 3.98518 1.47413 -0.347348 4.26326 
2950 1 1.06058 3.21476 -0.299595 3.39842 
3556 2 4.13016 1.03454 -0.683718 4.3123 
244 1 3.9079 -0.582848 0.586315 3.99439 
524 1 -0.866271 -0.500542 -1.18663 1.55211 
157 1 -0.0488495 0.329195 -2.28858 2.31265 
812 1 -1.83514 -1.01869 -2.1668 3.01671 
98 1 -0.389764 1.10926 1.35488 1.7939 
113 1 0.271584 -1.45003 0.00617585 1.47525 
3786 2 0.432118 -1.07126 1.68885 2.0461 
3117 1 2.29856 0.00306473 -1.02006 2.51474 
3699 2 -1.3086 2.4409 -6.47996 7.04701 
40 1 -0.129257 1.63126 -0.42354 1.6903 
91 1 2.92068 0.301918 0.27103 2.94873 
330 1 -0.643356 -0.574626 0.320242 0.92014 
3514 2 0.588466 1.90131 -4.38244 4.81322 
1179 1 -0.733176 1.33042 -2.22589 2.69484 
1575 1 -1.61519 2.23336 -3.09206 4.14217 
3454 1 2.40998 0.416592 -2.68699 3.63338 
54 1 0.0933388 2.12835 -2.03002 2.94271 
2573 1 0.518761 0.723408 -1.51621 1.75821 
3616 2 -0.860014 2.39183 -4.52603 5.1909 
3169 1 3.96099 0.439013 -1.43948 4.23725 
1457 1 0.237574 -2.36103 -0.343908 2.39775 
3730 2 -0.0725809 0.530563 1.87002 1.94518 
2994 1 -0.326613 3.18049 0.732399 3.28003 
338 1 -0.205376 -0.0474755 -0.384851 0.438798 
479 1 0.720427 -0.467363 0.0162887 0.8589 
237 1 -1.9016 0.46581 0.925644 2.16561 
3415 1 3.47948 0.983914 0.537676 3.65567 
2934 1 -0.0585464 1.69158 -2.08262 2.68368 
3007 1 0.983194 1.43955 -1.94075 2.60873 
3037 1 0.951644 -0.615361 0.697872 1.33091 
441 1 1.61851 -3.66577 1.5131 4.28333 
3564 2 -5.60843 -2.10253 2.69421 6.56764 
3535 2 0.96172 -0.651725 1.52178 1.91454 
473 1 1.29974 0.170329 -0.834209 1.55378 
3196 1 -0.194889 0.611405 -0.723452 0.967047 
3199 1 -0.547699 -0.2184 0.891118 1.06853 
377 1 -2.06162 -1.5799 0.376608 2.62454 
677 1 0.0425652 -0.793836 -0.21193 0.82274 
240 1 1.13132 0.461866 -0.330407 1.26585 
2684 1 0.100167 -0.285275 -2.81866 2.83483 
4287 2 -2.34554 -1.52791 1.45493 3.15482 
195 1 1.31603 -2.61852 -0.391994 2.95672 
249 1 0.802276 0.0243361 -1.01262 1.29214 
174 1 -0.223975 0.103654 0.456401 0.518856 
1133 1 2.1507 -0.858765 2.20611 3.19842 
45 1 1.26554 1.20908 4.11273 4.46968 
517 1 -1.0522 0.553917 1.4363 1.86465 
3426 1 0.770854 0.821813 0.567841 1.26176 
216 1 0.771013 -0.276671 1.50156 1.71047 
160 1 0.549702 3.2644 2.27916 4.01908 
3447 1 1.60637 0.992446 -0.501347 1.95365 
719 1 2.11989 -0.143057 -1.25172 2.46601 
1149 1 -0.501172 1.48013 -1.32928 2.05158 
609 1 0.478584 0.582591 2.1418 2.27063 
2931 1 -0.352703 0.787697 1.96556 2.1467 
2617 1 1.96255 -0.93859 -2.52171 3.3304 
2494 1 0.517968 0.184447 1.20196 1.32175 
3411 1 -0.822152 1.84103 0.383346 2.05238 
67 1 2.46488 -1.35822 -0.0801563 2.81547 
3256 1 -1.17122 1.21658 -1.97489 2.59847 
4248 2 0.699467 -0.783573 1.62089 1.93146 
1116 1 2.59775 -0.426078 0.172409 2.6381 
587 1 1.32603 1.39479 -0.630713 2.02524 
3603 2 -1.01789 1.73427 -0.407276 2.05174 
3010 1 1.41505 3.38334 2.16126 4.25681 
4222 2 5.3584 -1.33415 3.20491 6.38466 
1215 1 -0.982096 -0.962959 2.53232 2.88174 
674 1 0.000869341 -0.363026 -1.11493 1.17255 
257 1 0.950899 0.0540573 0.494593 1.0732 
3038 1 -1.94602 -0.0324231 1.98789 2.78204 
2936 1 0.0673556 -0.534277 2.80546 2.85668 
3030 1 -0.612631 0.687542 0.348301 0.984553 
6 1 0.738382 0.312172 -0.659134 1.03784 
3216 1 0.148003 -1.80401 1.42665 2.30471 
2477 1 0.554983 1.82451 1.80119 2.6232 
178 1 -0.0547051 0.818264 0.177886 0.839162 
3477 2 1.05354 -1.45833 -0.314782 1.82641 
3164 1 0.435986 2.5243 2.53699 3.60534 
154 1 -0.365938 -0.18527 -1.81292 1.85874 
622 1 -2.02031 0.363928 1.51674 2.55237 
3640 2 -2.68209 -1.58419 2.18884 3.80713 
3528 2 -2.6354 -0.540007 -0.638566 2.76491 
1714 1 -2.98053 -3.66518 -2.93562 5.56192 
3819 2 -2.43314 -3.41934 -2.30006 4.78564 
1278 1 -1.73119 0.428866 -0.683741 1.91009 
2926 1 0.524933 1.55446 -1.80791 2.4414 
742 1 0.358776 1.69083 -0.958718 1.97655 
3419 1 -0.738882 -1.9476 0.976718 2.30067 
4169 2 -0.94558 3.87861 -6.44731 7.58324 
3110 1 1.83895 0.462411 -0.169381 1.90374 
4251 2 5.78244 0.205767 -4.94347 7.61032 
4020 2 3.73628 0.584691 -0.591326 3.8277 
402 1 0.964402 1.93452 0.180037 2.16907 
1452 1 -1.07735 0.676229 -0.750835 1.47706 
181 1 -0.695745 -0.156822 0.205087 0.742101 
36 1 1.82766 1.93181 1.66343 3.13675 
869 1 -0.461623 -2.1789 2.03368 3.01605 
604 1 -0.640572 3.96683 -0.309504 4.03012 
99 1 1.32313 0.0962999 -0.572419 1.44485 
2549 1 3.03757 1.03872 -1.14929 3.40978 
3057 1 0.422854 0.853921 0.235553 0.981566 
197 1 0.368109 0.980137 -3.46246 3.61729 
2636 1 2.82299 1.3086 -1.51924 3.46262 
3092 1 -0.210402 -0.662383 0.0917011 0.70102 
4103 2 5.36718 -0.475806 0.359035 5.40018 
3770 2 -6.01416 3.85351 -3.11049 7.79069 
4177 2 0.309841 -0.873395 -1.99814 2.20259 
1160 1 -0.432831 2.05835 -1.94529 2.86501 
180 1 -1.91031 1.80675 -0.8083 2.75081 
213 1 1.06405 -0.612001 1.11591 1.65892 
733 1 -0.505704 -0.926329 -0.669738 1.24995 
2639 1 1.44037 0.934107 -0.353293 1.75272 
1569 1 -1.57523 0.635898 -2.26104 2.82807 
4094 2 2.54008 0.365377 2.03706 3.27645 
2560 1 3.16525 -1.46848 -0.946602 3.61542 
2988 1 -2.00901 0.557977 1.25668 2.43449 
3541 2 -0.836664 -3.55434 -0.646949 3.70835 
101 1 1.47018 0.420358 -0.934775 1.79219 
354 1 0.31904 -1.41209 -0.125133 1.45308 
602 1 -0.348372 0.664081 -0.421363 0.860182 
3592 2 -2.60311 2.66685 -0.497259 3.75973 
1036 1 -0.271142 -0.526138 1.05662 1.21111 
70 1 1.79294 -1.40505 -1.5252 2.74136 
30 1 2.35037 0.480306 -0.754147 2.51469 
252 1 1.24527 1.23557 0.331423 1.78526 
3475 2 2.85183 -1.53207 -1.49301 3.565 
3393 1 0.729206 -1.82917 -1.77156 2.64877 
3408 1 0.70165 -1.27933 -0.00190676 1.45911 
4235 2 1.58271 0.295525 0.296645 1.63716 
3687 2 -3.05761 1.54428 5.11095 6.15269 
217 1 0.839455 0.804232 -0.971821 1.51523 
166 1 -1.56968 0.684568 -1.00483 1.9855 
446 1 2.57502 1.33714 -0.0317028 2.90166 
3299 1 0.249175 3.39812 -2.02626 3.96422 
3076 1 2.1715 -2.20902 -1.75355 3.55951 
3690 2 -3.74285 0.317493 -1.10155 3.91447 
23 1 0.0990552 -1.02168 1.45185 1.77806 
787 1 -2.27836 -1.26984 2.36464 3.52064 
4289 2 -0.366742 -2.29691 1.54546 2.79263 
66 1 0.819484 -0.577161 -0.390085 1.07556 
3680 2 5.61924 0.575253 -3.00553 6.39844 
4001 2 4.80924 0.912804 8.01071 9.38794 
3388 1 -2.68995 0.617317 0.872852 2.89462 
790 1 0.811303 -1.36735 -0.306223 1.61914 
34 1 -1.98374 4.01463 -0.846875 4.55738 
2838 1 -0.82587 -0.969993 0.231802 1.29487 
751 1 -1.23879 0.793403 1.0751 1.82207 
3192 1 1.10032 0.743011 -4.93345 5.10898 
886 1 -0.259992 -0.0723082 -0.716104 0.765264 
2740 1 -0.915604 -0.673021 -0.878197 1.43615 
3162 1 -0.713117 1.98459 -1.12224 2.38884 
3811 2 -2.39387 1.59558 3.99742 4.92502 
356 1 -0.68601 -2.04675 -0.159652 2.16455 
861 1 -1.68712 1.76459 0.521344 2.49639 
477 1 -1.08439 -0.549509 0.570512 1.34289 
4298 2 -0.0594318 0.116088 -0.183099 0.224797 
311 1 -1.96342 0.184647 2.06404 2.85471 
786 1 -1.26164 0.884175 1.59712 2.21907 
836 1 1.08977 -1.88437 -1.36133 2.56742 
612 1 -1.13395 -2.03627 1.32172 2.6794 
3336 1 2.15526 -0.859343 -1.39207 2.70582 
431 1 -1.12471 -0.0319688 1.03533 1.52902 
4318 2 0.667802 1.56392 -1.90815 2.55594 
772 1 -0.922112 0.329502 1.46702 1.76381 
4121 2 2.64408 0.698819 5.22193 5.89475 
3197 1 -0.241548 -0.930265 0.0646224 0.963283 
811 1 -2.34491 -1.77733 -1.6014 3.34992 
362 1 -0.804992 0.0632538 0.758179 1.10763 
3421 1 2.06185 -0.716485 1.86841 2.87324 
1289 1 -1.6781 0.889908 2.12789 2.85234 
1349 1 -1.50439 -1.80231 1.56482 2.82138 
2814 1 0.439162 1.66163 1.67457 2.39959 
3584 2 -1.17517 -2.15147 2.68275 3.63414 
265 1 -0.178551 0.469106 -0.543702 0.739968 
3379 1 -0.189731 -2.58297 0.0798218 2.59116 
702 1 -1.56381 1.12324 0.0241425 1.92556 
1449 1 -0.592458 -1.86678 -0.449301 2.00941 
2823 1 2.37877 -3.78847 -1.00271 4.58437 
3665 2 0.721036 0.677752 3.70679 3.83661 
3436 1 -0.6274 0.379664 0.890125 1.1533 
171 1 0.462455 -3.2125 -0.405932 3.2709 
448 1 -3.40663 -0.182262 0.16988 3.41573 
492 1 -0.721655 1.88982 -2.41508 3.15037 
527 1 0.0873861 -2.57859 -2.01682 3.2748 
421 1 -1.2537 3.65054 0.775467 3.93695 
903 1 1.32272 -1.05621 -0.539628 1.77662 
3493 2 0.491168 -0.615689 -4.64599 4.71227 
327 1 0.927954 -0.705555 0.596663 1.30955 
877 1 -2.10781 -0.729258 3.81438 4.41862 
221 1 -1.09929 0.329425 0.403152 1.21634 
155 1 -2.67371 0.627991 2.15863 3.49324 
274 1 0.546974 -0.242094 4.30608 4.34743 
3401 1 0.117575 1.08038 1.54274 1.88708 
3578 2 -0.314724 1.0569 1.48112 1.84656 
2052 1 1.54741 1.15635 1.5713 2.4901 
246 1 1.06493 1.70692 1.27268 2.38062 
3028 1 0.740783 -3.36282 0.912779 3.56237 
3636 2 -3.13977 -0.076675 0.085379 3.14187 
4192 2 4.9252 -4.47748 0.746317 6.69794 
449 1 0.662761 0.300194 0.0851883 0.732548 
3330 1 1.25843 1.72077 0.746707 2.25882 
3281 1 -0.221912 -0.985145 -2.22873 2.44684 
974 1 -2.01869 -1.48658 1.37701 2.86027 
4181 2 5.58815 -5.3813 -1.64649 7.93074 
3860 2 -4.77622 1.36818 3.2353 5.92886 
3404 1 1.31012 -0.303601 0.00916804 1.34487 
1590 1 -3.06695 -4.50294 -1.03954 5.54647 
2629 1 1.34537 -1.21198 0.841502 1.99676 
228 1 1.00729 -4.2811 0.84385 4.47823 
3221 1 0.14193 -0.924001 0.30112 0.982138 
3769 2 -3.20513 -8.69008 3.6512 9.95599 
3546 2 -0.719912 -2.27599 -1.42486 2.78004 
364 1 -0.150141 0.929886 0.832147 1.25686 
2944 1 -1.14428 -0.992091 -1.65113 2.24051 
2001 1 1.73145 -3.10332 0.271681 3.56403 
490 1 0.99631 -2.50055 -3.05938 4.07495 
935 1 -3.36483 -2.74105 -0.246368 4.34697 
3573 2 -1.41972 -0.340474 0.452912 1.52861 
980 1 -0.0692423 1.79879 -2.23848 2.8725 
3390 1 -1.81504 -2.73166 0.717061 3.35715 
2365 1 -2.15658 -0.580156 0.0897612 2.23505 
3095 1 -0.410821 -1.63839 -1.82767 2.48867 
471 1 0.451346 0.131289 -1.17772 1.26806 
332 1 -1.41242 -2.17665 1.79425 3.15469 
484 1 0.564714 -3.02961 0.300153 3.09637 
3013 1 0.577582 0.30325 -2.85547 2.92904 
3301 1 -1.76666 2.17189 -0.876593 2.9337 
2651 1 6.90649 0.650194 -0.900584 6.99524 
2787 1 2.5996 2.19834 0.542318 3.44742 
3952 2 3.7999 -2.46788 -2.37654 5.11641 
780 1 0.516637 0.51205 2.17554 2.29393 
29 1 0.413196 -2.02214 -1.82378 2.75426 
3343 1 2.52471 -1.13513 -3.40191 4.38585 
2506 1 2.41788 -0.108187 -1.12464 2.66883 
3471 2 -6.52611 -1.61333 3.05291 7.38331 
306 1 -0.0997326 1.83405 0.328285 1.86586 
2737 1 -0.0818532 -0.480204 0.0340463 0.488319 
3785 2 -0.237441 1.64718 2.06242 2.65013 
4152 2 -0.0758669 3.1019 -6.5729 7.26846 
3717 2 -3.61329 -0.710155 1.54364 3.99287 
3495 2 -3.33661 0.417465 1.68524 3.76129 
635 1 -1.46089 -3.76436 2.64724 4.8283 
526 1 -0.807409 3.74337 1.53771 4.12665 
358 1 -1.71036 1.28649 -2.35274 3.18053 
3409 1 1.23105 -1.80626 1.26546 2.52576 
601 1 -0.570771 0.593203 0.935366 1.24603 
3351 1 2.73339 -2.02308 3.7051 5.02912 
551 1 -0.699806 2.90623 -1.45793 3.32587 
767 1 3.43041 -0.482786 1.2463 3.68159 
1327 1 -1.43939 1.70428 -1.84733 2.89639 
1285 1 -1.62379 0.719837 0.94145 2.01027 
505 1 -0.918921 -4.27903 4.91174 6.57874 
2966 1 -0.589082 1.24174 1.2056 1.82823 
250 1 -1.55102 -2.63038 0.70567 3.13409 
2462 1 3.50629 -3.94912 -0.0858662 5.28176 
875 1 -2.478 -0.294433 -2.17815 3.31232 
1432 1 -0.943007 -0.551189 -0.371067 1.15359 
4233 2 4.88348 -4.27501 -2.70984 7.0333 
2942 1 1.63273 1.53282 -1.4312 2.65776 
373 1 -0.776072 -0.185699 0.570651 0.981027 
385 1 -2.18778 -4.53865 -0.19808 5.04232 
4056 2 -2.54318 -1.33941 -0.204896 2.88162 
398 1 1.3935 -1.37328 0.836665 2.12785 
94 1 0.758997 0.59692 -0.0664574 0.967888 
4109 2 -1.72737 0.459853 -0.495401 1.85491 
3646 2 3.78612 -3.50733 2.27413 5.63983 
3233 1 -0.132219 -0.709426 -0.104477 0.729166 
349 1 0.0505534 1.58865 2.62664 3.07011 
2757 1 2.39891 -1.89248 1.85452 3.57428 
2745 1 -1.36968 -2.18486 1.44092 2.95395 
3249 1 -0.150693 -2.28434 2.95395 3.73721 
2764 1 0.593023 1.07942 0.49163 1.32609 
3320 1 1.44073 0.491067 0.410406 1.57648 
2316 1 3.34666 -0.778675 1.02061 3.58443 
3334 1 4.82892 4.09884 2.72835 6.89658 
3483 2 -1.27906 -1.74137 2.37271 3.20907 
4140 2 3.87548 -4.60603 -2.98888 6.72073 
294 1 1.9236 -1.39872 -0.491411 2.42861 
2848 1 0.836436 2.16623 2.01615 3.07523 
2858 1 1.76707 -0.265243 0.31532 1.81447 
293 1 1.75065 0.654145 -0.913587 2.08022 
1810 1 -1.78167 2.13629 1.84689 3.33902 
504 1 -1.69923 -0.0788985 1.38953 2.19645 
3161 1 2.55578 -2.03312 -1.87429 3.76544 
741 1 -1.89627 0.287985 -1.87043 2.67904 
4288 2 4.83825 -2.38228 2.05122 5.76988 
3350 1 -0.441533 0.222406 1.23855 1.33358 
369 1 -2.01387 0.546216 -1.24417 2.4294 
2341 1 2.95146 -0.273869 -3.72616 4.76134 
2228 1 3.01429 -2.99027 0.193199 4.2503 
309 1 -0.449684 -1.28542 -1.72238 2.19571 
1762 1 -2.53447 -0.244542 -0.239093 2.55744 
1313 1 -0.263104 -1.11699 1.74813 2.09113 
325 1 -0.883527 -0.14456 0.840681 1.22811 
2879 1 1.10849 -2.45064 0.769231 2.79752 
1081 1 -1.82312 -0.955032 1.34287 2.45747 
199 1 -2.04261 1.33452 -1.63637 2.93784 
2675 1 1.22559 -0.786839 -4.08897 4.34061 
1314 1 0.392 -1.55622 2.41114 2.8964 
3313 1 -1.58337 -4.31462 -4.69225 6.56812 
462 1 1.59924 1.16013 3.61416 4.11893 
388 1 0.381792 0.0462691 2.49021 2.51973 
1077 1 -1.27757 1.24173 3.93095 4.31584 
3327 1 1.19538 0.413838 -0.609627 1.40422 
346 1 -1.77733 1.62675 1.45727 2.81583 
3539 2 -3.03013 0.994395 1.91204 3.71838 
389 1 -0.455966 3.04997 0.786742 3.18264 
3321 1 1.10705 -0.708834 2.50701 2.83075 
1354 1 0.302402 -1.95025 1.17673 2.29775 
1212 1 -0.201402 -0.5105 2.15769 2.22638 
3291 1 -1.33699 -2.23503 -0.898042 2.75489 
3070 1 0.919235 -2.09392 -0.270908 2.3028 
382 1 -0.653031 -2.54729 -0.695899 2.72018 
3544 2 0.0717434 -4.20991 -1.85238 4.59997 
499 1 -2.11227 2.76779 3.31465 4.80721 
404 1 1.6386 0.450064 0.194778 1.71041 
4239 2 1.5286 -0.893969 5.05496 5.35616 
888 1 0.855251 -0.798407 -0.562568 1.29823 
957 1 -0.448976 -2.29111 -1.13227 2.59477 
2479 1 -0.461318 -2.23198 1.3315 2.63959 
183 1 -1.42892 1.03007 0.660488 1.88125 
501 1 1.00631 1.03805 -2.20906 2.64011 
854 1 -0.251426 -1.92945 -0.343043 1.97577 
3312 1 1.10799 3.55983 0.533377 3.76623 
3359 1 4.41469 1.45353 -1.74521 4.96468 
3758 2 -2.68233 3.1113 -0.760878 4.1778 
3278 1 -0.875104 -0.960286 -2.18032 2.53806 
3506 2 6.29883 -1.19249 -3.34505 7.23095 
965 1 -0.548283 -1.02933 3.21962 3.42434 
22 1 0.964988 -1.37698 -0.875607 1.89578 
793 1 0.422374 2.08371 -0.933089 2.32183 
4163 2 0.581526 -1.39408 -2.1976 2.66666 
915 1 -1.94845 0.364396 3.16175 3.73175 
227 1 1.08048 -1.935 -1.30498 2.5719 
717 1 -1.04781 -1.55186 -0.197104 1.88282 
2847 1 2.63736 0.576356 0.479787 2.74191 
771 1 -0.225882 0.781224 0.131475 0.823783 
2524 1 1.9938 -0.791648 -1.26454 2.49018 
879 1 -3.4616 1.75216 1.39673 4.12354 
1172 1 1.60962 0.0419732 -0.511978 1.68961 
95 1 -0.824188 1.21461 -0.480432 1.54447 
187 1 -1.45785 1.18898 -0.711272 2.01119 
813 1 -1.41223 -3.80936 0.000804415 4.06271 
914 1 -2.49126 -1.43101 0.518913 2.91949 
4301 2 1.94992 -3.59748 0.998633 4.21204 
855 1 -0.0925735 -1.50705 0.294793 1.5384 
3668 2 -0.718857 -2.39115 3.31566 4.15066 
1224 1 -1.06702 -0.983739 -1.71949 2.25009 
100 1 -0.383299 0.749705 -2.39074 2.53469 
3487 2 -0.826525 1.52034 1.43996 2.25123 
438 1 1.31206 -2.08172 -2.71042 3.6608 
2965 1 -0.666007 0.930508 4.76639 4.90183 
865 1 -1.67384 2.86309 3.22538 4.62624 
460 1 0.15923 1.18811 2.52938 2.79906 
3166 1 2.03417 3.24713 2.19424 4.41548 
2286 1 2.4148 -2.5108 -1.83998 3.93966 
1450 1 0.396499 -0.777838 -0.611068 1.06567 
292 1 0.949576 1.75344 1.46437 2.47399 
440 1 -1.3928 -0.998666 -0.537514 1.79615 
1404 1 -2.47664 -1.44543 0.350637 2.88893 
314 1 1.67705 -2.12512 0.194906 2.71415 
2329 1 0.608117 0.811307 2.14745 2.37477 
2869 1 1.17506 -0.0650114 1.0359 1.56782 
3476 2 0.242653 2.88228 -0.768907 2.99293 
321 1 -2.29746 -0.252292 -0.847614 2.46179 
964 1 1.18981 -1.82582 -1.20734 2.49137 
3381 1 1.02704 0.694127 -1.48139 1.93161 
3368 1 0.856284 -4.26636 2.47237 5.00476 
3400 1 3.02506 1.13509 -0.808403 3.33061 
2710 1 0.546606 -1.84326 -3.25774 3.78276 
4146 2 -1.91487 1.86419 4.74094 5.44228 
103 1 0.497733 2.55061 0.463967 2.63981 
810 1 -1.35809 1.75069 0.257969 2.23067 
4297 2 0.43053 0.782405 5.8853 5.95267 
308 1 -0.0296701 0.730114 -3.22636 3.30807 
442 1 0.0973281 0.633034 -0.668022 0.92545 
3782 2 -5.4233 -2.53813 2.14394 6.36009 
2656 1 -1.44038 1.10498 -0.665502 1.93354 
3827 2 3.93021 -1.33947 4.18894 5.89813 
458 1 2.33283 -0.724727 0.19817 2.45084 
840 1 -0.0743615 0.021409 -1.76811 1.76981 
496 1 1.81703 -1.17121 2.26454 3.13073 
251 1 2.78227 -2.0064 0.502091 3.46681 
1423 1 -2.57633 0.835777 0.337454 2.72945 
4257 2 2.03755 -0.208986 2.79811 3.46767 
239 1 1.85109 -2.26067 -1.444 3.25919 
815 1 2.75657 -0.677635 -1.32584 3.13301 
783 1 -1.58225 1.06487 1.41105 2.37245 
2500 1 1.80003 -1.17293 0.966785 2.35596 
1091 1 -0.419543 -1.33129 1.49956 2.04866 
85 1 0.649964 0.349425 -0.77983 1.07363 
819 1 -0.0680233 -1.1234 0.93761 1.46485 
3435 1 -1.66263 -2.0145 3.25704 4.17503 
3331 1 1.37189 -2.22838 2.31662 3.49492 
3118 1 -0.0460439 4.04409 -1.52975 4.32399 
3520 2 -4.95895 -4.81059 0.901883 6.96752 
3219 1 1.55115 0.709065 1.19879 2.0847 
295 1 1.22301 -4.14711 1.60242 4.61108 
429 1 3.36497 0.235955 0.316114 3.38801 
937 1 -0.052946 -2.90008 1.14898 3.11984 
478 1 -0.122892 -2.40917 -1.56941 2.87789 
3617 2 0.798267 2.3967 -4.7494 5.37942 
3056 1 -0.318377 2.21691 2.18539 3.12921 
3780 2 -2.65108 2.27152 3.70128 5.08798 
352 1 0.733349 3.57591 0.677326 3.71264 
729 1 -0.385635 -2.59556 2.84602 3.8711 
867 1 -1.65094 0.76777 0.366103 1.85717 
1848 1 -2.34778 1.36015 -1.83915 3.27789 
3482 2 -2.13936 -3.69647 -0.7948 4.34424 
3227 1 0.221164 -0.126333 -2.45857 2.47173 
765 1 -2.47966 -0.33956 1.94751 3.17125 
3991 2 4.36687 -1.60642 2.02146 5.07311 
275 1 0.833605 -0.738096 1.50553 1.87251 
3734 2 -2.15853 -5.31719 2.65426 6.32272 
595 1 -1.8316 3.22358 -2.8646 4.68531 
3328 1 -2.73531 0.0902423 -0.86495 2.87023 
3916 2 -2.40451 -4.19644 4.62948 6.69506 
4310 2 -2.39135 -1.15462 2.68598 3.77706 
3129 1 1.01888 0.44375 0.383293 1.17557 
757 1 0.634991 -2.20149 0.798499 2.42639 
906 1 -2.2189 -1.19809 0.579792 2.58749 
3371 1 -0.00739876 -1.38051 0.439943 1.44893 
2696 1 -0.661936 -0.643627 -2.20103 2.38683 
3395 1 1.57698 -0.225704 1.12903 1.95257 
691 1 0.678859 -4.59511 3.04946 5.55654 
699 1 -0.423461 2.6626 0.188305 2.70264 
3228 1 1.88713 -0.908232 1.63893 2.65936 
1439 1 -3.89211 1.97029 2.60317 5.08007 
647 1 -0.125887 -0.773159 0.309355 0.842213 
92 1 1.17926 -1.61784 -1.24112 2.35551 
4209 2 4.06415 -3.53565 -1.8201 5.68603 
486 1 0.364769 0.197254 -0.222337 0.470531 
342 1 4.01248 -0.335372 -0.735191 4.09304 
3290 1 -2.07074 0.594181 -2.58573 3.36557 
163 1 -2.76003 0.0987389 0.66559 2.84087 
367 1 0.327883 0.566454 -0.884184 1.10007 
676 1 -1.33675 -0.526815 1.63159 2.17405 
3612 2 -0.254068 0.018709 -0.277863 0.376973 
2776 1 -0.0427577 -1.62501 -0.411378 1.67682 
214 1 -1.86835 3.23327 0.835949 3.82669 
2959 1 1.53401 -2.00284 2.9273 3.86441 
2508 1 2.51289 -0.45764 0.0698106 2.55518 
1387 1 -0.806319 -3.30156 -0.471234 3.43111 
1416 1 -1.28324 0.845304 1.16039 1.92555 
3464 2 1.91173 -1.2694 -5.32795 5.80113 
1412 1 0.947037 0.215752 -1.31606 1.63568 
706 1 -0.503126 -0.701443 2.94026 3.06436 
3274 1 1.74516 4.51341 -0.50629 4.86547 
3660 2 -3.51269 4.44748 -2.24537 6.09596 
3251 1 1.3043 1.17253 -2.76201 3.27181 
3884 2 0.876743 0.143364 2.38173 2.54202 
516 1 0.608885 -0.15143 0.0401788 0.628719 
1641 1 -0.901537 0.590715 0.375101 1.14123 
722 1 0.126027 -1.1798 -1.60063 1.99244 
1478 1 -0.861222 -0.815749 -1.6693 2.04785 
631 1 -0.369998 0.507948 0.334858 0.712067 
1220 1 -1.64643 1.40736 -1.88396 2.87066 
700 1 -1.61841 -1.4525 0.0288632 2.17482 
3526 2 2.17532 3.32608 1.1286 4.13141 
46 1 1.42394 0.83414 1.35843 2.13746 
960 1 0.314032 1.54949 -1.47558 2.16261 
4259 2 4.66483 1.36448 -4.49168 6.61798 
3859 2 -1.41277 2.86676 2.72378 4.19919 
721 1 2.64215 0.0555404 4.42507 5.15415 
683 1 1.10644 1.7252 1.23933 2.39509 
4262 2 -1.4076 -1.28566 5.02032 5.37009 
351 1 0.609495 2.23678 -1.35011 2.68281 
565 1 0.247989 0.391144 -0.40147 0.612919 
3211 1 1.07138 -0.16291 1.38021 1.75481 
112 1 1.17075 -0.757148 -2.09765 2.51875 
1472 1 1.64751 0.811224 -1.77898 2.55678 
987 1 -0.819719 2.95045 -0.730045 3.14802 
3957 2 -1.25742 2.95656 -2.26064 3.92847 
664 1 -0.142783 -2.63784 2.1552 3.40932 
573 1 -0.60488 3.1939 0.197013 3.25664 
3003 1 2.85546 1.70112 1.07408 3.49301 
3126 1 -0.742132 0.281501 -4.70031 4.76686 
1637 1 -1.32436 2.82449 -1.91936 3.66274 
738 1 3.06258 0.0273165 -2.04154 3.68077 
3607 2 1.27282 -0.742139 3.50429 3.80144 
3740 2 -3.11114 4.481 1.37639 5.6261 
535 1 -1.59605 -2.02707 2.84802 3.84286 
562 1 3.61033 0.236728 0.183958 3.62276 
992 1 -2.10273 0.458354 0.506545 2.21092 
52 1 1.64343 -0.363501 -0.048469 1.68385 
555 1 -2.00843 1.9644 0.113708 2.81168 
3418 1 0.536629 2.42465 -1.08537 2.71015 
698 1 -0.580966 0.633167 -0.851928 1.21004 
226 1 3.40026 1.36581 0.323569 3.67857 
106 1 1.69233 2.77369 -0.0992652 3.25072 
3628 2 2.18086 -3.2726 0.441208 3.95736 
1118 1 0.65848 1.8525 -0.188526 1.97507 
739 1 -0.317933 0.0260105 -0.640817 0.715824 
3715 2 -0.860162 4.11815 0.534857 4.24088 
799 1 -1.44029 0.925436 -1.19873 2.08993 
1053 1 -1.42248 1.13522 -0.620786 1.9229 
1122 1 -1.81421 -1.08047 2.33541 3.14848 
128 1 0.431306 2.8236 -0.516239 2.90263 
3910 2 -1.69842 -0.447071 2.39105 2.96675 
728 1 1.98703 0.603395 1.20473 2.40078 
1242 1 -0.893801 2.47689 0.959378 2.80254 
3596 2 -2.87096 -2.18879 -2.9328 4.65129 
1007 1 0.258679 0.498849 1.58816 1.68464 
591 1 -0.830743 -0.153748 1.74146 1.93558 
1544 1 -0.960668 0.658276 0.352559 1.21676 
196 1 -1.15895 0.772577 2.2785 2.67051 
2987 1 -0.142152 -0.10167 -1.81138 1.81979 
3600 2 -0.495401 -0.447725 1.15501 1.33414 
469 1 -0.881709 1.62073 -0.0564822 1.8459 
3455 1 5.03649 2.51365 1.65452 5.86703 
297 1 2.16028 2.89513 3.67337 5.15192 
509 1 -0.0921308 -0.321369 1.51048 1.54704 
125 1 -0.839545 2.63872 0.388917 2.79624 
978 1 0.144013 -1.19838 -2.27963 2.57945 
3722 2 -1.7664 0.293655 -2.27013 2.89135 
3594 2 -1.38197 -0.250552 -1.68627 2.19457 
3823 2 0.276076 -0.344857 -0.766148 0.88438 
1734 1 0.351459 0.961568 -0.318778 1.07227 
96 1 0.526707 0.21671 -0.579143 0.812275 
627 1 -0.114612 1.6605 0.347009 1.70024 
3173 1 -0.3326 -0.193649 2.39817 2.42886 
1154 1 -1.99869 1.53077 0.911646 2.67752 
3459 2 -0.79254 -4.32015 0.218389 4.39767 
1484 1 -1.57515 1.09194 -0.579647 2.00236 
123 1 -0.561579 2.14239 1.02952 2.44236 
266 1 0.78044 1.54664 2.05183 2.68536 
655 1 -1.01203 3.30925 1.2476 3.67856 
4048 2 0.113675 -1.58861 7.0811 7.258 
723 1 -0.649541 -0.645207 -1.65278 1.88941 
247 1 1.70763 0.867641 -2.07563 2.82436 
678 1 -1.8965 -0.487998 -0.96127 2.18149 
1467 1 -0.553621 1.13486 0.73403 1.46055 
1709 1 -0.929722 3.58706 -0.592001 3.75258 
934 1 0.969482 0.715499 1.14153 1.6598 
1001 1 -2.22802 1.70735 -4.4059 5.22408 
4168 2 4.16549 -3.43677 2.11047 5.798 