ITEM: TIMESTEP
82
ITEM: NUMBER OF ATOMS
4320
ITEM: BOX BOUNDS pp pp pp
0.0000000000000000e+00 1.9309999999999999e+01
0.0000000000000000e+00 1.9309999999999999e+01
0.0000000000000000e+00 9.6549999999999994e+00
ITEM: ATOMS id type c_displacement[1] c_displacement[2] c_displacement[3] c_displacement[4] 
3196 1 0.054651 0.0162352 0.0884993 0.105273 
381 1 0.108466 0.0951148 -0.0285397 0.147058 
327 1 -0.0800023 -0.00618164 -0.0445392 0.0917732 
484 1 -0.0378623 0.0140823 0.0089939 0.0413854 
728 1 -0.0136185 0.152119 -0.121168 0.194955 
817 1 0.0981894 0.0140635 0.0301176 0.103663 
3586 2 0.0451535 -0.0320378 0.116784 0.129243 
3460 2 0.0225648 0.0465532 -0.0678345 0.0853105 
3679 2 0.0683539 -0.000514219 0.151913 0.166584 
2945 1 -0.148046 0.0279105 -0.0997724 0.180697 
3230 1 0.0414904 0.0387157 -0.0571801 0.08056 
3651 2 0.114026 0.00691354 0.0152462 0.115248 
66 1 0.0110937 0.0268155 -0.0529257 0.0603595 
400 1 -0.0429245 0.156721 -0.0958512 0.188657 
677 1 0.080632 0.0164876 0.0297865 0.0875248 
623 1 0.0768264 0.00698295 0.0601333 0.0978114 
87 1 0.133045 -0.0203814 0.000473191 0.134598 
3006 1 0.0172149 -0.105326 0.0664558 0.125723 
3877 2 0.0457512 0.0351992 -0.154964 0.165366 
727 1 0.085002 0.00595765 -0.00569457 0.0854006 
688 1 0.0384334 0.0681586 -0.0225909 0.0814437 
58 1 0.0624852 -0.0478417 0.0240217 0.0822817 
3514 2 -0.0255611 0.0335044 -0.157488 0.163029 
18 1 0.0677341 0.0521995 -0.0142796 0.0866983 
3618 2 0.054415 0.0640866 0.124353 0.150106 
190 1 -0.011785 0.108964 -0.111954 0.15667 
298 1 0.0274261 -0.0328938 -0.117682 0.125233 
559 1 0.0186035 0.0337069 -0.0279083 0.0475512 
626 1 0.131804 0.157517 0.0345064 0.208265 
180 1 -0.000298416 0.0406196 0.07835 0.0882539 
106 1 -0.0368334 -0.0427375 -0.0601844 0.0824946 
217 1 -0.0130996 0.0667334 0.0874124 0.110751 
775 1 -0.0213689 0.03359 -0.0485841 0.0628119 
3627 2 0.00220657 0.07523 -0.102365 0.127055 
608 1 0.124758 0.0282018 0.0665108 0.144165 
3118 1 -0.0362247 0.0321203 -0.0431386 0.0648451 
562 1 -0.0743333 0.0135656 -0.0338399 0.0827925 
70 1 0.0023565 0.0760899 0.00656734 0.0764092 
121 1 -0.0481692 -0.0134678 -0.0348279 0.0609478 
1118 1 0.0389984 -0.0189979 0.0483808 0.0649808 
210 1 -0.0238099 -0.0494838 0.123408 0.135074 
232 1 -0.0333416 -0.0419327 -0.0591446 0.0798003 
4214 2 0.068877 -0.0222562 0.149654 0.16624 
3712 2 -0.0356675 0.008401 -0.0801511 0.0881303 
65 1 -0.0582819 -0.0522058 -0.00426932 0.0783611 
226 1 0.0952242 -0.0254269 0.05455 0.112649 
532 1 -0.0102689 -0.0374493 0.119698 0.125839 
3578 2 0.0277138 -0.0348661 -0.0146391 0.0468828 
473 1 0.00253445 -0.0152653 -0.0728215 0.0744474 
246 1 0.0307165 -0.0011118 0.0792695 0.08502 
221 1 -0.0501294 0.0355566 0.0291589 0.0680255 
4034 2 0.0615074 0.000827506 0.0203174 0.0647815 
4071 2 0.0327899 0.0378376 0.190715 0.197178 
2838 1 0.0380021 0.0371288 0.0236277 0.0581461 
536 1 0.0990628 0.0717632 0.082794 0.14771 
894 1 0.0492934 -0.0440593 0.0195523 0.0689446 
289 1 0.0308891 -0.0394146 0.0816661 0.0957967 
351 1 0.0569621 0.120644 0.0364147 0.138296 
197 1 -0.0197418 -0.125256 -0.0252857 0.129299 
3135 1 -0.11441 0.0520237 0.0864851 0.152564 
303 1 -0.00744216 -0.0308404 -0.0161801 0.0356134 
1415 1 0.0909998 -0.140217 0.0178256 0.168106 
527 1 -0.0222842 -0.104167 0.0769618 0.131417 
3002 1 -0.0318038 -0.0772584 0.051651 0.098225 
3189 1 0.0327208 -0.108961 0.0147723 0.114723 
712 1 -0.053792 -0.09155 -0.00863347 0.106534 
718 1 -0.0121808 -0.0732024 0.00667744 0.0745088 
3469 2 0.0119943 -0.0985564 -0.0582331 0.115101 
110 1 0.121771 -0.0436199 -0.0968499 0.161588 
4177 2 0.0249983 -0.189999 0.0876243 0.210719 
93 1 -0.0123833 -0.0757235 0.122659 0.144681 
569 1 -0.0370515 0.0456633 -0.077268 0.0970994 
639 1 0.0822032 -0.0478376 0.00318098 0.0951625 
21 1 -0.0597371 -0.0666768 0.0949212 0.130477 
96 1 0.080293 0.0515807 -0.126554 0.158504 
167 1 0.0505975 -0.00524947 0.111486 0.122543 
1178 1 -0.0131834 0.0469665 0.00923935 0.0496489 
3353 1 -0.0659884 0.027483 -0.0844089 0.11061 
823 1 -0.0210403 -0.0268205 0.043991 0.0556529 
2596 1 -0.000353279 -0.167878 0.0873645 0.18925 
50 1 0.0302571 -0.0957195 0.0290097 0.104495 
2495 1 0.209621 -0.00932447 -0.0359818 0.212892 
28 1 -0.079263 0.0456042 -0.0540715 0.106236 
3055 1 0.19817 0.0327586 0.0587834 0.209284 
12 1 0.146709 -0.00214979 -0.0879012 0.171041 
3835 2 -0.0437222 -0.0576137 0.0694819 0.100293 
4170 2 0.0553413 0.0642355 -0.135121 0.159519 
738 1 0.0796304 0.00514287 -0.0663874 0.103801 
2453 1 -0.00917759 0.0331088 0.0847512 0.0914505 
3167 1 0.0494365 -0.0337266 0.00254706 0.0598994 
339 1 0.161574 0.0689037 0.0049194 0.175722 
390 1 0.118606 -0.00218394 0.0335309 0.123274 
203 1 -0.0159855 -0.00673197 -0.0124083 0.0213265 
3582 2 0.110927 0.11778 -0.0802078 0.180583 
3632 2 0.0334202 -0.00513125 -0.0359249 0.0493339 
231 1 -0.0517001 0.00376084 0.114208 0.125422 
323 1 -0.0196935 -0.0395906 -0.00728187 0.0448138 
3244 1 0.0566406 -0.0720407 -0.0404883 0.100186 
118 1 0.169397 -0.073635 -0.00649498 0.184823 
155 1 -0.162406 -0.0353957 -0.10301 0.195549 
2735 1 -0.012222 -0.0782682 -0.163066 0.181289 
2768 1 -0.00260655 0.11225 0.0708404 0.13276 
2960 1 -0.0879135 0.0617535 -0.0721404 0.129408 
29 1 -0.0675105 0.0556996 0.044954 0.098392 
753 1 -0.0568583 -0.0506607 0.00353667 0.0762357 
3467 2 -0.0868076 0.0389726 0.00875053 0.0955563 
3916 2 -0.0933198 0.0334881 0.0653233 0.118731 
3251 1 -0.102295 -0.0216912 0.0469564 0.114628 
4289 2 0.0286144 0.0537443 -0.0395924 0.0726278 
725 1 -0.0745821 -0.00749342 -0.00444654 0.0750894 
1133 1 0.019365 0.0307386 -0.00800687 0.0372018 
546 1 -0.121323 0.0468526 -0.0212122 0.131774 
4187 2 -0.0713869 -0.0871774 0.0283151 0.11618 
437 1 -0.142519 0.0367742 -0.11813 0.188729 
53 1 0.112363 0.00674831 -0.118742 0.163617 
593 1 -0.03281 -0.0195097 0.0275526 0.0470773 
609 1 -0.0840229 0.0391217 -0.0833682 0.124662 
3040 1 0.0310232 0.124233 -0.0369019 0.133259 
737 1 0.107295 0.166729 0.080319 0.21392 
233 1 -0.0697041 0.150583 0.0608911 0.176753 
610 1 -0.0850503 -0.117163 0.106298 0.17961 
247 1 0.116959 0.0723384 0.0784888 0.158344 
89 1 -0.0287857 -0.0651335 0.0986571 0.121673 
3149 1 -0.0586156 -0.0697426 0.130499 0.159153 
550 1 0.0210895 -0.0609556 -0.0330405 0.0724709 
147 1 0.0404552 -0.139123 0.132035 0.196024 
3554 2 -0.174224 -0.0215294 0.034478 0.178903 
3786 2 -0.0522024 0.0308282 0.0372376 0.0711485 
5 1 0.122392 0.0146597 -0.027069 0.126204 
2591 1 0.0142072 0.110487 0.0362924 0.117159 
3232 1 -0.040765 0.0522979 -0.0400348 0.0774574 
1215 1 0.0896349 -0.00875755 -0.0201554 0.0922895 
859 1 0.0835613 0.000738831 0.118982 0.145395 
3152 1 0.039876 -0.0750136 -0.0638968 0.106301 
2936 1 -0.0505555 0.0450961 -0.0613042 0.0913658 
59 1 0.0685502 -0.123148 0.0394612 0.146362 
2461 1 -0.101117 -0.122352 -0.118345 0.197991 
988 1 -0.00811856 0.0969418 -0.220822 0.241301 
23 1 -0.00241411 -0.0215603 -0.0907223 0.0932803 
3743 2 -0.0337362 0.0540467 0.048649 0.0801617 
3023 1 -0.0720801 0.11284 -0.00532359 0.134003 
151 1 0.069536 -0.0720616 0.1237 0.159154 
43 1 0.062257 0.0148808 -0.148403 0.161619 
3730 2 -0.00418308 0.00890115 -0.199482 0.199725 
1454 1 -0.146365 -0.0609788 0.0236238 0.16031 
424 1 0.0704097 -0.013996 0.00312111 0.0718551 
3478 2 0.138062 0.0666769 -0.0318978 0.156602 
3611 2 0.0494384 -0.0609334 -0.0069207 0.0787713 
3346 1 0.0791325 0.0485353 -0.0720668 0.117521 
3199 1 -0.0221364 -0.02109 -0.0777604 0.0835553 
100 1 -0.105453 -0.188947 0.0105985 0.216642 
2500 1 -0.0184932 -0.0804647 -0.0809089 0.115598 
3188 1 0.0653882 0.164794 -0.0220666 0.178661 
3491 2 0.0440661 0.17281 0.0321647 0.181217 
717 1 -0.105452 0.0203115 0.0809011 0.134453 
2931 1 -0.0977446 -0.0516948 0.0825812 0.138007 
691 1 -0.0229035 -0.0483605 0.0326461 0.0626824 
825 1 0.112376 0.0138315 0.0109751 0.113755 
3634 2 0.111531 0.166557 0.0740896 0.213705 
140 1 -0.00463674 0.0675669 -0.0225033 0.0713666 
174 1 -0.0094138 -0.0795144 -0.0322643 0.0863257 
3493 2 0.106758 -0.0050895 0.164998 0.19659 
529 1 0.0863984 -0.0486293 -0.0226267 0.101693 
1480 1 0.0786695 0.0824497 0.005745 0.114105 
2968 1 0.0526006 -0.0758767 0.0287259 0.0966916 
3464 2 0.0436879 0.025181 -0.0239502 0.0558241 
98 1 0.0138189 -0.0519285 0.0648426 0.0842146 
216 1 0.087262 -0.0650892 -0.0146003 0.109838 
40 1 0.053121 -0.111618 -0.0495807 0.133186 
4228 2 -0.0917473 -0.00634527 -0.0897915 0.128531 
1130 1 -0.0389774 -0.0271409 0.00300246 0.0475907 
2994 1 0.0466505 -0.0576817 0.0303609 0.0801576 
3041 1 -0.0790417 0.0382348 0.0387089 0.0959577 
604 1 0.0683304 -0.00505207 -0.0352862 0.0770694 
721 1 0.0776087 -0.031328 0.0334472 0.0901292 
3164 1 0.055709 -0.0233403 -0.0226272 0.0645 
241 1 0.010435 -0.00500599 0.0689782 0.0699424 
2494 1 0.0607743 -0.0164693 -0.125466 0.14038 
3010 1 0.131549 -0.0244193 0.10844 0.172223 
64 1 0.0416792 -0.174066 -0.134411 0.223835 
193 1 -0.0399177 -0.0177507 0.0427159 0.0610995 
44 1 0.0242073 -0.119034 -0.0277633 0.124603 
2996 1 0.11604 0.12897 0.100782 0.200637 
4212 2 -0.0419606 0.00979527 0.0603003 0.0741132 
3279 1 0.00570314 -0.0255023 0.0207225 0.0333514 
257 1 -0.0229448 -0.0189477 -0.0276075 0.0405913 
330 1 0.0495918 0.253836 0.135437 0.291951 
2981 1 0.0376959 -0.115506 0.0273993 0.124553 
103 1 -0.100017 0.0559322 -0.0354739 0.119959 
3841 2 0.0277951 -0.0249476 -0.0805166 0.0887574 
600 1 -0.0374297 -0.0223915 -0.0438271 0.0618318 
338 1 -0.0962568 -0.155164 0.022907 0.184027 
4101 2 0.0034229 -0.0097566 0.0730581 0.0737862 
949 1 -0.0667205 0.0202817 0.0366535 0.078781 
446 1 -0.0500008 -0.0353517 0.141399 0.154089 
3608 2 0.0285787 0.0363201 0.128272 0.136344 
4217 2 -0.0286435 -0.00263484 0.0109651 0.0307835 
479 1 -0.0165907 0.0207716 -0.0335885 0.0428357 
3335 1 -0.0223109 -0.0997506 -0.0177052 0.103737 
1457 1 -0.0466769 -0.0985215 -0.0604432 0.124654 
3037 1 -0.18148 0.122612 -0.171654 0.278269 
4253 2 0.0864622 0.0880598 -0.177733 0.216377 
387 1 0.0223716 -0.0397799 -0.0610504 0.0762239 
3736 2 -0.057551 -0.100928 -0.183008 0.216773 
1991 1 0.054063 0.0545724 -0.0606923 0.0979005 
3394 1 -0.000755702 0.00210475 -0.035859 0.0359287 
508 1 -0.0862189 -0.0219636 -0.0862546 0.123919 
3537 2 0.0300725 0.0331418 -0.200149 0.205091 
747 1 0.0143911 0.0274758 0.0244847 0.0395162 
497 1 0.104756 -0.0163768 0.0634321 0.123554 
958 1 -0.0269179 -0.0431713 0.0356302 0.0621115 
3130 1 -0.0348563 0.0401139 -0.141581 0.151226 
4163 2 -0.0997892 0.215357 -0.0381297 0.240396 
3643 2 -0.0369526 -0.026189 -0.03098 0.0548737 
133 1 0.076712 -0.0232665 0.02931 0.085353 
4204 2 -0.112187 -0.103726 -0.019751 0.154063 
86 1 0.100851 0.0271524 -0.0864254 0.135564 
759 1 -0.0324955 0.0510633 0.0480137 0.0772576 
3411 1 -0.0293453 0.0162537 0.0629048 0.0712906 
835 1 -0.0645041 0.0593618 0.0688238 0.111451 
3057 1 0.00492837 0.0283598 0.0555748 0.062587 
3620 2 0.0368999 -0.0759905 0.0170352 0.0861763 
704 1 0.0733514 -0.0757993 -0.149106 0.182643 
3599 2 -0.0444572 0.14514 0.0699426 0.167134 
157 1 -0.0282909 0.0761005 0.113878 0.139857 
54 1 0.041242 -0.212376 -0.0242784 0.217702 
493 1 0.0781716 0.135884 0.0489534 0.164231 
204 1 -0.222448 -0.00406021 0.0196602 0.223352 
254 1 0.0205798 0.0555583 0.0345564 0.0685887 
178 1 0.113228 -0.0903399 -0.190711 0.239484 
580 1 -0.0716765 -0.0170864 0.202454 0.215446 
67 1 0.097564 -0.118682 -0.0289742 0.156345 
2988 1 0.0206779 0.0231352 -0.118585 0.122577 
3030 1 -0.0452534 0.0556223 0.114192 0.134839 
4050 2 0.103095 0.132887 -0.110356 0.201162 
3479 2 -0.0431347 0.0587662 -0.11338 0.134793 
2934 1 0.0673187 0.00842155 -0.0415813 0.0795722 
3216 1 -0.133952 -0.017837 -0.00462556 0.135213 
234 1 0.128011 -0.115896 -0.0620987 0.183507 
1036 1 0.0766816 -0.1291 -0.00038373 0.150156 
3369 1 -0.0602591 0.00642224 0.0424668 0.0739989 
3607 2 -0.0488754 0.0437741 -0.0293416 0.0718742 
3139 1 0.0398716 0.055124 -0.043304 0.0806451 
644 1 -0.145044 -0.0564166 -0.105922 0.188255 
1278 1 0.104557 0.0247659 -0.0513106 0.119073 
4269 2 0.0630073 0.0706223 0.0748669 0.120675 
3007 1 -0.0416257 -0.0428525 0.0336442 0.0685636 
4089 2 0.0619498 0.130201 0.0325988 0.147827 
214 1 -0.00567264 -0.0468052 0.0148182 0.0494215 
640 1 -0.0242513 -0.0368669 -0.0644652 0.0781221 
199 1 -0.0495767 -0.0686919 -0.115635 0.143345 
245 1 0.0468378 -0.011015 0.138145 0.146284 
2758 1 -0.0674812 -0.0643859 -0.034829 0.0995606 
3056 1 -0.0538198 -0.125521 0.0456936 0.144014 
3468 2 -0.071409 -0.0136385 0.0688088 0.1001 
563 1 0.011944 0.151845 -0.0336693 0.155991 
3518 2 -0.161246 0.0910314 0.0951706 0.208193 
1149 1 0.0494484 -0.0528071 -0.013035 0.0735095 
2684 1 -0.24581 0.0676831 0.0569931 0.261251 
249 1 -0.144798 0.0370747 0.0393078 0.154551 
3096 1 0.0371309 0.0994933 -0.0178682 0.107689 
240 1 -0.0140906 -0.0754216 0.0870652 0.116049 
181 1 -0.151774 -0.0189038 0.166021 0.225734 
46 1 0.0710772 -0.0289094 -0.0273034 0.0814444 
3211 1 0.0616534 0.0333468 -0.00843939 0.0706001 
354 1 0.0987305 -0.0697218 0.0708932 0.140124 
2939 1 0.00225579 0.0295428 0.0503027 0.05838 
3512 2 0.00331898 0.0479321 -0.0096886 0.049014 
3603 2 -0.175169 0.146437 -0.115325 0.255788 
3701 2 -0.0581843 0.080959 0.0905635 0.13469 
3513 2 -0.0125175 -0.0238256 0.0386248 0.0470768 
312 1 -0.12771 -0.095843 0.0811774 0.179124 
587 1 -0.000183876 0.0733324 0.0227348 0.0767759 
134 1 -0.0558871 0.0479031 0.0805829 0.109141 
135 1 -0.114827 -0.0831242 -0.14579 0.203346 
1179 1 0.19971 0.0561259 0.0567359 0.215066 
3003 1 -0.0254397 0.0536689 0.0149642 0.0612492 
191 1 -0.0955399 0.0331927 0.0904212 0.135667 
685 1 0.0240257 -0.0639963 -0.0600616 0.0909954 
602 1 -0.0145839 -0.012467 0.0441943 0.0481794 
195 1 -0.119824 0.0370501 -0.0193789 0.12691 
3092 1 -0.00986799 0.0558517 0.000819268 0.0567227 
4195 2 -0.171659 -0.0364888 -0.110695 0.207489 
2995 1 -0.187155 -0.117711 -0.0338783 0.223676 
540 1 -0.178714 0.00785333 0.0868473 0.198854 
674 1 -0.074148 0.0290422 -0.141977 0.162785 
920 1 -0.131192 0.0942241 -0.096278 0.18804 
902 1 0.0216633 0.118248 0.099005 0.155737 
2004 1 -0.167845 0.0182142 -0.0926111 0.192563 
427 1 -0.204109 -0.0125574 -0.125064 0.239706 
4173 2 0.0737931 0.147756 -0.0456951 0.171363 
2950 1 -0.283864 -0.0406813 -0.0327857 0.288632 
6 1 -0.167741 0.0751841 -0.0547449 0.191798 
182 1 0.0502724 -0.0841588 -0.134473 0.166412 
690 1 -0.027419 0.0542079 -0.0166687 0.0629932 
154 1 0.0350612 0.0610867 0.0425347 0.0822804 
710 1 0.0211252 -0.120411 -0.0872878 0.150214 
3115 1 -0.173527 0.0755283 0.0135553 0.189736 
742 1 0.0314167 0.00820757 -0.107967 0.112745 
2926 1 -0.137537 -0.0625964 0.107849 0.185651 
80 1 -0.128754 -0.0835016 -0.0182135 0.154538 
2977 1 -0.0719445 -0.0122743 -0.168424 0.183557 
95 1 -0.0833182 -0.00355954 0.0671226 0.107052 
3408 1 -0.12521 -0.0747403 0.157935 0.214958 
85 1 0.117181 -0.161402 0.251384 0.320898 
4098 2 -0.00546216 0.157393 -0.0138884 0.158099 
215 1 0.0141396 0.0287563 0.00794297 0.0330142 
78 1 -0.0531234 -0.0348903 0.0433309 0.076922 
205 1 -0.0734083 -0.012306 0.0788628 0.108442 
694 1 -0.0532852 0.0903261 0.0980647 0.143579 
861 1 0.070455 0.0238767 -0.112377 0.134769 
3549 2 -9.18275e-05 -0.189682 0.0682734 0.201595 
4014 2 0.0320984 -0.11166 0.0108264 0.116685 
3401 1 -0.0336379 0.0684917 0.00210542 0.0763351 
1077 1 -0.0501878 -0.093867 0.128953 0.167209 
3234 1 -0.107191 -0.0535556 0.0320713 0.124043 
3393 1 -0.0398848 -0.0479094 -0.0581532 0.085252 
3341 1 -0.145077 0.0738731 -0.0742735 0.178945 
512 1 0.11816 -0.00124838 0.0745523 0.139719 
300 1 -0.049169 -0.0785682 0.0381886 0.100244 
393 1 0.00753748 -0.109282 -0.019534 0.11127 
2740 1 0.063912 -0.0574075 0.0283444 0.0904642 
3197 1 -0.0656 0.111506 -0.0202723 0.13095 
4006 2 0.00868082 0.0625642 -0.0501613 0.0806585 
286 1 -0.0526351 -0.143378 -0.0157266 0.153541 
886 1 0.0294869 -0.0573047 0.0336046 0.0726813 
277 1 -0.0617634 0.0245409 -0.00908807 0.0670789 
364 1 0.0111964 0.0717789 0.0721951 0.102419 
1367 1 -0.00157701 -0.0407376 -0.00993533 0.0419613 
411 1 0.0711075 0.0103834 -0.00175605 0.0718831 
483 1 -0.0793037 0.13704 0.09234 0.183292 
334 1 -0.100301 0.0392549 0.039408 0.114692 
356 1 0.140601 -0.1424 -0.0401872 0.204111 
4154 2 0.00679836 -0.0231965 0.105676 0.108406 
357 1 0.0527636 -0.0245791 -0.0546895 0.0798691 
265 1 0.0048807 0.0702424 0.0226282 0.0739584 
3389 1 0.0217462 -0.0798959 0.00698218 0.0830964 
362 1 0.025988 0.0680435 0.0707748 0.10156 
478 1 0.00219697 0.0133158 0.0377106 0.0400527 
4159 2 -0.028301 -0.0587847 -0.0866776 0.108488 
2696 1 0.0522483 0.0574823 -0.00607252 0.0779165 
780 1 0.0688863 0.0323575 -0.0558497 0.0944009 
966 1 -0.016413 0.0586306 0.135567 0.148611 
3612 2 0.0398473 -0.0208976 -0.0130191 0.0468403 
433 1 -0.0646871 0.230961 -0.0425497 0.243594 
924 1 0.0338809 0.0228396 0.147777 0.153322 
2710 1 0.107974 -0.0231738 0.0207021 0.112356 
3313 1 0.0697427 0.0516248 -0.0370346 0.0943437 
3482 2 -0.0700871 -0.0156603 0.0168776 0.0737719 
3290 1 -0.0376852 -0.058911 -0.025953 0.0745938 
3192 1 0.047393 -0.133982 -0.0209437 0.143652 
468 1 0.0343955 0.0265724 0.0325597 0.0543072 
3333 1 0.00495237 -0.088266 -0.03477 0.0949967 
3303 1 -0.042265 0.0365175 0.0325945 0.0646704 
3526 2 -0.0371608 0.00800934 -0.0568162 0.0683605 
3249 1 0.00559138 0.116745 -0.0285517 0.120315 
92 1 -0.0790991 0.0147353 0.053958 0.0968776 
3379 1 -0.0151714 0.109491 0.139903 0.178302 
1449 1 -0.0596083 -0.0313069 0.0860562 0.109265 
903 1 0.0163409 0.0634091 0.0218731 0.0690374 
160 1 -0.00515446 0.0821313 -0.0345113 0.0892365 
553 1 -0.089067 -0.0902575 0.0114596 0.127321 
3808 2 -0.0319466 -0.0298516 -0.0778489 0.0892869 
462 1 -0.0676444 -0.16866 0.099235 0.20705 
2966 1 0.00608565 -0.0293719 0.0200704 0.0360911 
3022 1 -0.0559029 0.0264086 -0.0193332 0.064779 
750 1 -0.0425228 -0.0870448 -0.0369532 0.103685 
3162 1 0.0102342 -0.0514796 -0.0916017 0.105573 
449 1 -0.0293705 -0.0165555 -0.121371 0.125967 
3631 2 0.114347 -0.218678 -0.207289 0.32228 
287 1 -0.0173939 0.000520856 -0.048031 0.0510862 
3647 2 -0.158182 0.0753291 -0.0867162 0.195488 
2890 1 -0.0179768 0.0783284 -0.0131125 0.0814275 
1285 1 -0.073602 0.0836922 0.0994209 0.149352 
943 1 -0.0374362 -0.0396225 -0.0567952 0.0787217 
3305 1 0.0614552 0.0499309 0.0939173 0.122843 
3209 1 0.0301076 0.0132554 -0.170306 0.173454 
3409 1 0.0680071 -0.0151365 -0.0287325 0.0753634 
4318 2 -0.129191 0.057056 0.137048 0.196794 
763 1 0.105485 0.0270593 0.0938548 0.143764 
3883 2 0.0387299 0.0240754 -0.039653 0.0604317 
3531 2 -0.0179485 -0.00844559 0.0344136 0.0397212 
3227 1 0.00500643 -0.0603937 -0.0183457 0.0633169 
373 1 0.0598375 -0.0651478 -0.0488819 0.101065 
4297 2 -0.0118002 0.00846854 0.180981 0.181563 
3404 1 0.0744161 -0.10655 -0.00417321 0.130031 
3221 1 -0.0111648 0.0412548 0.00357902 0.0428884 
398 1 -0.0322894 0.0901075 0.0225704 0.0983432 
2732 1 0.0654816 -0.0451475 0.00342944 0.079611 
4123 2 0.0291097 -0.0570687 0.0734944 0.0974969 
1145 1 0.0656721 0.0244137 0.0870612 0.111752 
836 1 0.121708 -0.0503151 -0.087663 0.158207 
309 1 -0.00859405 0.101394 0.0368223 0.108215 
394 1 0.0823225 0.0624286 0.0755742 0.128007 
412 1 0.000923523 0.05479 0.0257361 0.0605404 
1212 1 0.007267 -0.0256108 -0.0376416 0.0461044 
3573 2 -0.0180398 0.076773 0.130303 0.15231 
3360 1 -0.0683885 0.0470053 -0.0627737 0.104053 
3319 1 0.0112406 -0.00536675 0.02795 0.0305999 
3588 2 0.00483735 0.032402 0.0943786 0.099903 
2365 1 0.0379746 -0.0178728 -0.0507686 0.0658708 
306 1 -0.0930058 0.156849 -0.0927092 0.204565 
3093 1 -0.0587142 0.0586918 0.0545929 0.0993603 
2745 1 -0.0457223 0.0302585 -0.0199423 0.058342 
355 1 -0.123966 0.0259023 -0.0219396 0.128529 
3097 1 0.0587179 0.0916373 -0.139975 0.177308 
228 1 -0.024753 0.00465911 -0.0485679 0.0547107 
3324 1 0.0117546 0.133396 -0.00149741 0.133921 
951 1 -0.0554063 0.0404196 0.0193537 0.0712613 
2737 1 -0.157752 -0.0291933 -0.0193356 0.161591 
2959 1 0.0894055 0.101264 0.0423396 0.141564 
4284 2 -0.0643392 -0.00792717 0.0417471 0.0771051 
4225 2 0.0638002 0.0742298 0.0460589 0.108176 
3483 2 -0.0146835 0.167213 -0.0402352 0.172611 
2961 1 -0.0221465 0.0386776 -0.0263612 0.0517816 
4116 2 -0.0255567 -0.0245145 0.0413624 0.0544514 
716 1 0.114717 -0.0240015 -0.118431 0.166619 
389 1 0.00802641 -0.167965 -0.0568106 0.177494 
601 1 -0.0668733 0.120874 0.0379014 0.143245 
3094 1 -0.0384469 -0.00417812 0.0708989 0.0807606 
3617 2 -0.114776 -0.0646564 0.101977 0.166594 
206 1 -0.0460835 -0.0797427 0.0515464 0.105544 
71 1 -0.0188711 0.00652495 -0.0103716 0.0225003 
3561 2 0.0299297 0.13645 -0.142713 0.199704 
3676 2 0.0935696 -0.0108658 0.0845286 0.126564 
3257 1 0.030131 0.00691303 -0.0376196 0.0486919 
962 1 0.0124465 -0.0247559 -0.0872193 0.0915149 
1324 1 -0.0529457 -0.0262642 0.0479881 0.0761309 
4185 2 -0.0546753 -0.115913 -0.0274354 0.131064 
388 1 -0.0134657 0.0631697 0.0596222 0.0879007 
1313 1 0.0027572 0.0784024 -0.0173044 0.0803367 
444 1 0.0716575 0.137694 -0.150341 0.216095 
3668 2 0.0964302 0.163545 -0.0543153 0.197473 
838 1 -0.179314 0.0141092 0.0381842 0.183877 
460 1 -0.130102 0.0340726 0.000350805 0.13449 
499 1 -0.139634 0.0448524 0.000750733 0.146663 
3548 2 -0.27396 -0.0619754 -0.00997298 0.281059 
291 1 0.0716684 0.13838 -0.019902 0.157104 
482 1 -0.0697842 0.123534 -0.0618731 0.154787 
1314 1 -0.0470694 0.045375 0.0634221 0.0910867 
3672 2 0.0164726 0.146324 0.0962343 0.175907 
375 1 0.0769552 -0.0026707 0.0267131 0.0815035 
94 1 -0.0586668 -0.000732615 -0.0288984 0.0654022 
3281 1 -0.103444 0.0501644 0.00931462 0.115343 
37 1 0.00910228 0.0336331 0.0862339 0.0930071 
3321 1 0.0467943 -0.000101739 -0.0111736 0.0481099 
4264 2 0.117601 -0.101155 0.00324551 0.155154 
3664 2 -0.155244 -0.00529213 0.0595137 0.166345 
3380 1 -0.0528385 0.0266391 0.0810659 0.100366 
901 1 -0.0606622 0.0492075 0.0258898 0.0822895 
4309 2 -0.00599576 0.046493 0.0209747 0.0513565 
392 1 0.0766296 0.0403186 0.00434749 0.0866982 
436 1 0.123963 0.145529 -0.0800306 0.207244 
792 1 0.0325117 -0.0423663 0.0421626 0.0680412 
3293 1 0.143813 0.000732629 0.0177858 0.144911 
3392 1 -0.0710299 -0.000885242 0.0339309 0.0787232 
318 1 -0.0771337 -0.124574 -0.0232613 0.148356 
3350 1 -0.0955651 -0.0909447 0.0102697 0.132322 
3314 1 -0.0167534 -0.0886692 -0.00694392 0.0905048 
2861 1 -0.013108 0.030225 0.0612194 0.0695211 
3180 1 -0.13136 -0.023429 0.0606336 0.146563 
3150 1 0.024579 0.072061 0.0601195 0.0970117 
3320 1 -0.153156 -0.230726 0.115559 0.300075 
3095 1 -0.111779 0.0217547 0.0903699 0.145377 
2479 1 0.0765695 -0.0236378 -0.00271122 0.0801809 
614 1 0.110753 0.0121065 0.04759 0.121151 
771 1 -0.0219517 0.0607521 0.0207035 0.0678331 
4271 2 -0.134446 0.143191 0.0363878 0.199758 
1172 1 -0.025995 -0.0168394 0.090452 0.0956079 
652 1 -0.103309 0.0304672 0.0153127 0.108791 
3568 2 -0.117104 0.0131265 0.0403904 0.124568 
3433 1 0.0402495 -0.0340133 0.0627669 0.0819549 
3419 1 -0.143548 0.0625105 0.0330282 0.160014 
248 1 -0.0847637 0.0171194 0.0425554 0.096379 
3560 2 -0.0932972 -0.0668605 0.0310135 0.118897 
3535 2 -0.0755675 -0.00985109 0.0486272 0.0903996 
4028 2 -0.044261 -0.123161 0.128286 0.183262 
3082 1 0.0078238 0.0703649 -0.0295543 0.0767195 
3487 2 0.0649117 0.0105557 -0.0385527 0.0762317 
328 1 -0.0436335 -0.00447104 0.0639615 0.0775561 
325 1 -0.0456998 0.0394738 0.0564431 0.0826588 
292 1 -0.0968701 -0.0442101 -0.0833127 0.135201 
3444 1 -0.0260449 -0.0363749 -0.0445405 0.0631294 
908 1 0.00811719 -0.162978 -0.136065 0.212465 
3504 2 0.277038 -0.205893 0.0683998 0.351882 
423 1 0.0540218 0.0683864 0.0325507 0.0930301 
502 1 -0.00383139 -0.0771149 0.0532369 0.0937847 
3435 1 0.0253621 -0.0102259 -0.0430302 0.0509843 
430 1 -0.136281 -0.0511633 0.108407 0.1815 
439 1 0.0115351 0.0685564 0.06756 0.0969402 
3331 1 0.00928407 -0.042604 -0.0383209 0.0580499 
4182 2 0.029458 -0.0429826 0.0503034 0.0724273 
874 1 0.0718605 -0.180998 0.140311 0.240024 
980 1 -0.0907977 -0.0364015 0.116634 0.152226 
810 1 -0.0154502 0.0562633 0.0290575 0.0651813 
3312 1 0.00383565 -0.0144713 0.102959 0.104042 
1442 1 0.041165 -0.206025 -0.0321107 0.212537 
225 1 -0.0460341 -0.0611876 0.171836 0.188125 
4280 2 -0.0746751 0.0445863 -0.033671 0.0932633 
416 1 0.0204674 0.0494412 0.0331355 0.0629389 
365 1 -0.0193366 -0.0755347 -0.017186 0.0798421 
3799 2 -0.0250842 -0.104403 -0.0911744 0.140861 
2819 1 -0.0312909 -0.101228 0.117058 0.157888 
382 1 0.11508 0.128042 -0.0441682 0.177733 
404 1 0.0151208 0.0460412 -0.185391 0.19162 
2776 1 0.0607865 0.0791126 0.171688 0.198572 
2973 1 -0.0768554 -0.0938165 0.073242 0.141678 
957 1 0.0169057 0.0150564 -0.0196973 0.030008 
795 1 0.0415208 -0.121928 0.149582 0.197396 
490 1 -0.0807481 0.0133905 0.0141015 0.0830567 
3266 1 -0.116216 -0.0171706 0.108215 0.159724 
2884 1 -0.0217737 0.0301951 0.0286203 0.0469569 
4298 2 -0.183076 0.134326 -0.0486206 0.232215 
4285 2 0.00441842 0.0693799 0.104726 0.125701 
496 1 -0.0460824 -0.0500384 0.112897 0.131808 
2993 1 -0.0211773 0.0386534 0.0047803 0.044333 
4256 2 0.0173707 0.0140375 0.0361832 0.0425208 
471 1 -0.000593219 0.071138 0.104399 0.126333 
517 1 0.0136667 -0.0917454 0.0518379 0.10626 
279 1 -0.00960373 0.109804 0.057012 0.124094 
187 1 0.0672352 0.0970376 0.0492924 0.127932 
917 1 -0.0675619 -0.0887765 -0.0706156 0.132032 
3322 1 0.0525298 0.122884 0.0267409 0.13629 
3863 2 -0.155937 0.101172 -0.00396195 0.185925 
274 1 -0.0420515 -0.0563988 -0.0455642 0.0838168 
1091 1 0.0216787 0.0464353 0.141666 0.15065 
3396 1 0.0271067 0.00426281 0.0273171 0.038719 
349 1 0.136442 -0.0237273 0.136256 0.194281 
2545 1 -0.0874829 -0.0152868 -0.0127549 0.0897198 
3327 1 -0.0961929 -0.0721438 -0.00930856 0.1206 
3674 2 -0.0443609 0.0313975 0.0885187 0.103871 
1418 1 0.174518 1.07536e-05 0.0928643 0.197687 
443 1 0.0810641 0.0829558 0.0778475 0.13969 
855 1 0.023486 0.00810836 -0.13186 0.13418 
3420 1 0.00206295 -0.0391166 0.0277739 0.0480183 
2869 1 -0.0652798 -0.239862 -0.00843124 0.24873 
4307 2 -0.0404392 -0.102729 -0.0717669 0.131678 
3476 2 0.0673722 -0.101523 -0.0994059 0.15725 
177 1 -0.0771884 0.0370457 -0.0785723 0.116207 
363 1 -0.0844018 -0.159101 -0.118055 0.215345 
1450 1 -0.056883 0.0345219 0.0141372 0.0680243 
3559 2 0.00309309 -0.00549129 -0.0105915 0.0123248 
347 1 -0.114294 -0.169448 -0.0698221 0.215988 
4237 2 -0.0302517 0.0373942 0.00148243 0.0481216 
319 1 -0.10726 -0.0468825 -0.000499788 0.11706 
830 1 -0.0876796 -0.0369232 0.0277312 0.0990961 
295 1 -0.0433181 -0.0136949 -0.0563131 0.0723545 
937 1 0.0315712 -0.0284336 0.0518341 0.0670223 
268 1 0.065802 0.0114958 0.109583 0.128338 
854 1 -0.0470006 0.0681589 -0.0416012 0.0926572 
442 1 0.0305959 0.0242682 -0.0945995 0.102343 
875 1 0.082566 -0.00334592 -0.00836202 0.0830558 
501 1 0.125024 0.018223 0.0527799 0.136926 
1289 1 0.0162153 0.052024 -0.0168259 0.057031 
3291 1 0.19539 -0.170984 0.0408527 0.262834 
314 1 0.0821257 0.0506363 -0.056773 0.111946 
474 1 0.00962762 0.0630144 -0.0610264 0.0882481 
3070 1 0.0620119 0.0675852 0.0138594 0.0927649 
964 1 0.0176995 0.115019 -0.0325442 0.120838 
793 1 0.104089 0.094275 0.0703283 0.157062 
3397 1 0.00496125 0.0170422 -0.0681889 0.0704611 
899 1 -0.106646 0.0496179 0.0303842 0.121484 
1337 1 0.0128832 0.00850065 0.106777 0.107887 
3278 1 -0.00259536 -0.0277407 -0.157437 0.159884 
3544 2 0.0600442 0.0046727 0.00815971 0.060776 
1430 1 -0.0306121 -0.0128104 0.0734508 0.0805992 
3200 1 -0.0878592 -0.0129393 0.102514 0.135631 
757 1 -0.0775578 0.0999932 0.107468 0.166021 
822 1 -0.00852072 0.0303683 0.13847 0.142017 
3678 2 -0.115473 -0.0961711 0.143262 0.207622 
699 1 0.0191182 -0.0451878 -0.0686498 0.0843815 
329 1 -0.0203985 0.130081 -0.113288 0.173699 
3383 1 -0.13583 0.10227 0.0215159 0.171383 
31 1 -0.0405871 -0.115536 -0.259027 0.286515 
3240 1 -0.152643 -0.103837 0.0526484 0.191974 
113 1 0.0116113 0.0683853 -0.0906424 0.114138 
504 1 -0.0745608 -0.241498 0.0663259 0.261304 
581 1 0.0233917 -0.00681025 0.16146 0.163288 
2795 1 -0.0676256 -0.0568301 0.113994 0.144213 
3541 2 -0.0158491 0.0476106 0.00843831 0.0508838 
786 1 0.0380945 -0.0388293 0.109783 0.122521 
800 1 -0.00620889 0.0028859 -0.0559748 0.056392 
367 1 0.10277 -0.0469692 0.0311989 0.117222 
2687 1 -0.0222232 -0.108047 0.0514097 0.1217 
3545 2 0.026153 0.0265131 -0.0956003 0.102598 
491 1 -0.0138451 0.0821442 0.0133721 0.0843693 
781 1 -0.0361737 0.0136093 0.181987 0.186046 
3378 1 -0.00980678 0.204125 0.0553451 0.211723 
1304 1 -0.000356301 -0.104288 0.0692431 0.125183 
3434 1 -0.109398 0.00503078 -0.0459609 0.118767 
2814 1 -0.0154838 0.15663 0.0168921 0.158297 
1723 1 -0.0180995 -0.013931 -0.0303694 0.0379995 
3264 1 -0.0242873 -0.000189251 0.0713203 0.0753425 
440 1 0.0137676 -0.0357345 0.0610151 0.0720371 
431 1 0.0652428 0.0527456 0.0454322 0.0954086 
107 1 -0.047396 0.0787147 0.0217037 0.094411 
1254 1 0.0128719 0.0180055 -0.152434 0.154032 
968 1 0.0933316 0.074442 -0.0413935 0.126356 
801 1 0.0222026 -0.0401063 -0.0585644 0.0743724 
2656 1 -0.00133434 0.12101 -0.105856 0.160782 
421 1 0.0365981 -0.0156469 -0.215606 0.219249 
4152 2 -0.0514881 0.0928828 -0.070942 0.127715 
461 1 0.040761 0.219498 -0.0891727 0.240401 
3339 1 -0.0442932 0.0988332 0.192915 0.221238 
840 1 -0.023251 0.0467763 -0.0146538 0.0542528 
3436 1 -0.180362 0.0372468 0.0431102 0.189146 
3371 1 -0.165604 0.187163 -0.0083209 0.250048 
486 1 -0.0111794 0.00470656 0.0736585 0.0746506 
308 1 0.0416261 0.00623811 -0.0997285 0.108247 
307 1 -0.00768595 0.0226892 0.0851727 0.0884775 
208 1 -0.0101623 0.0572133 -0.00154283 0.0581293 
647 1 0.0115705 0.108345 0.147371 0.183278 
402 1 0.0494227 -0.0303841 0.193542 0.202051 
4143 2 -0.0795738 0.018064 0.151807 0.172347 
2873 1 0.0333284 0.0442657 0.0056501 0.055697 
1354 1 -0.0648436 0.01754 0.168242 0.181156 
128 1 0.0691022 0.20142 0.0331585 0.21551 
907 1 -0.0148354 -0.0209608 0.036136 0.0443312 
1641 1 0.0122627 0.0945768 -0.0681783 0.117232 
1544 1 -0.0228317 -0.0333531 0.111485 0.118586 
345 1 0.0461116 0.0270579 -0.00291671 0.0535436 
1300 1 -0.022584 -0.0140654 -0.0378883 0.0462968 
1934 1 0.0697039 0.0310075 0.0557568 0.0944929 
891 1 -0.169741 0.0084211 0.0792536 0.187521 